LAMMPS data file.
    499 atoms
   1007 bonds
   3221 angles
      0 dihedrals
      0 impropers
      1 atom types
   1007 bond types
   3221 angle types
      0 dihedral types
      0 improper types
  0.000000  21.972449 xlo xhi
  0.000000  21.972449 ylo yhi
  0.000000   1.000000 zlo zhi

Bond Coeffs

      1   1.026920   0.986806
      2   1.179056   0.920943
      3   1.011194   0.994450
      4   1.095802   0.955287
      5   1.383151   0.850286
      6   1.139703   0.936708
      7   1.056474   0.972905
      8   1.071593   0.966018
      9   1.242259   0.897210
     10   1.080326   0.962105
     11   1.119419   0.945156
     12   1.063579   0.969650
     13   1.427744   0.836902
     14   1.302108   0.876348
     15   1.024648   0.987899
     16   1.169757   0.924596
     17   1.055812   0.973210
     18   1.280956   0.883554
     19   1.102615   0.952331
     20   1.249559   0.894585
     21   1.288933   0.880815
     22   1.004344   0.997835
     23   1.101265   0.952915
     24   1.287871   0.881178
     25   0.998977   1.000512
     26   1.223653   0.904005
     27   1.027335   0.986607
     28   1.150854   0.932159
     29   1.182338   0.919664
     30   1.092934   0.956540
     31   1.021355   0.989491
     32   1.093953   0.956094
     33   1.139918   0.936619
     34   1.120625   0.944648
     35   1.356194   0.858695
     36   1.184950   0.918650
     37   1.208820   0.909535
     38   1.226115   0.903097
     39   1.133525   0.939257
     40   1.063009   0.969910
     41   1.402776   0.844318
     42   1.240663   0.897786
     43   1.314735   0.872129
     44   0.999009   1.000496
     45   1.026940   0.986796
     46   1.381384   0.850830
     47   1.179773   0.920663
     48   1.055785   0.973223
     49   1.309062   0.874017
     50   1.209470   0.909290
     51   1.365298   0.855828
     52   1.065057   0.968977
     53   1.384224   0.849957
     54   1.350027   0.860655
     55   1.045218   0.978130
     56   1.171477   0.923917
     57   1.324002   0.869072
     58   1.198253   0.913536
     59   1.068264   0.967522
     60   1.373638   0.853226
     61   1.278503   0.884401
     62   1.175620   0.922288
     63   1.217650   0.906231
     64   1.006002   0.997013
     65   1.274410   0.885820
     66   1.344111   0.862546
     67   1.234969   0.899854
     68   1.045383   0.978053
     69   1.359412   0.857678
     70   1.224278   0.903774
     71   1.070019   0.966728
     72   1.319646   0.870505
     73   1.111248   0.948625
     74   1.052548   0.974718
     75   1.257975   0.891587
     76   1.227441   0.902609
     77   1.176279   0.922030
     78   1.281167   0.883481
     79   1.010744   0.994671
     80   1.024656   0.987895
     81   1.177142   0.921691
     82   1.160871   0.928128
     83   0.996854   1.001577
     84   1.128941   0.941162
     85   1.364236   0.856160
     86   1.159019   0.928870
     87   1.075953   0.964058
     88   1.349114   0.860946
     89   1.293763   0.879170
     90   1.134379   0.938903
     91   1.182280   0.919687
     92   1.303047   0.876032
     93   1.386709   0.849195
     94   1.028102   0.986238
     95   1.209424   0.909307
     96   1.191381   0.916167
     97   1.008180   0.995935
     98   1.050817   0.975521
     99   1.066442   0.968348
    100   1.172920   0.923349
    101   1.301139   0.876674
    102   1.134246   0.938958
    103   1.075925   0.964071
    104   1.108223   0.949919
    105   1.106722   0.950562
    106   1.023630   0.988390
    107   1.099583   0.953643
    108   1.097994   0.954333
    109   1.003457   0.998276
    110   1.043331   0.979014
    111   1.343763   0.862658
    112   1.348798   0.861046
    113   1.355230   0.859001
    114   1.039244   0.980937
    115   1.085879   0.959642
    116   1.134431   0.938882
    117   1.032407   0.984180
    118   1.119406   0.945162
    119   1.202707   0.911843
    120   1.083274   0.960795
    121   0.992415   1.003814
    122   1.205336   0.910848
    123   1.105864   0.950932
    124   1.244234   0.896497
    125   1.053904   0.974091
    126   0.996352   1.001829
    127   1.178954   0.920983
    128   1.160672   0.928208
    129   1.110894   0.948776
    130   1.147186   0.933648
    131   1.226029   0.903129
    132   1.151464   0.931912
    133   1.118569   0.945515
    134   1.089798   0.957915
    135   1.328565   0.867578
    136   1.030713   0.984989
    137   0.985319   1.007422
    138   1.018613   0.990821
    139   1.135843   0.938298
    140   1.326692   0.868190
    141   1.125219   0.942717
    142   1.235346   0.899717
    143   1.345745   0.862023
    144   1.352031   0.860016
    145   1.215613   0.906990
    146   1.287674   0.881246
    147   1.120980   0.944498
    148   1.207667   0.909969
    149   1.234111   0.900166
    150   1.048045   0.976810
    151   1.307950   0.874389
    152   1.109408   0.949411
    153   1.115697   0.946732
    154   1.052400   0.974787
    155   1.129510   0.940925
    156   1.008614   0.995720
    157   1.259482   0.891054
    158   1.188835   0.917147
    159   1.270771   0.887087
    160   1.173833   0.922990
    161   1.047343   0.977137
    162   1.058636   0.971912
    163   1.272517   0.886479
    164   1.102808   0.952248
    165   1.297473   0.877912
    166   1.089052   0.958243
    167   0.971470   1.014578
    168   0.989783   1.005148
    169   1.071730   0.965956
    170   1.210652   0.908846
    171   1.265177   0.889046
    172   1.109009   0.949582
    173   1.063902   0.969503
    174   1.324577   0.868883
    175   1.061678   0.970518
    176   1.115465   0.946830
    177   1.276265   0.885176
    178   1.059276   0.971618
    179   1.142076   0.935734
    180   1.027327   0.986610
    181   0.968380   1.016195
    182   1.205083   0.910944
    183   0.978387   1.010985
    184   1.072201   0.965744
    185   1.188815   0.917155
    186   0.995471   1.002272
    187   0.984172   1.008009
    188   1.022024   0.989166
    189   1.323694   0.869173
    190   1.095289   0.955511
    191   1.021881   0.989236
    192   1.060022   0.971276
    193   1.093541   0.956274
    194   1.141357   0.936029
    195   0.975347   1.012559
    196   1.086372   0.959424
    197   1.157337   0.929544
    198   1.048681   0.976514
    199   1.158959   0.928894
    200   1.059340   0.971589
    201   0.964831   1.018062
    202   0.980435   1.009929
    203   1.028733   0.985936
    204   0.978478   1.010938
    205   1.287644   0.881256
    206   0.974514   1.012992
    207   0.965225   1.017854
    208   1.102005   0.952595
    209   1.131205   0.940220
    210   0.982850   1.008687
    211   1.048087   0.976790
    212   1.127447   0.941785
    213   0.994365   1.002830
    214   0.987305   1.006409
    215   1.011382   0.994357
    216   1.016718   0.991744
    217   1.230495   0.901488
    218   1.107246   0.950338
    219   1.269951   0.887374
    220   1.108686   0.949720
    221   0.983552   1.008327
    222   1.198194   0.913559
    223   0.962759   1.019157
    224   1.028172   0.986205
    225   1.137408   0.937652
    226   1.270665   0.887124
    227   1.007889   0.996079
    228   1.083127   0.960860
    229   1.208518   0.909648
    230   1.177910   0.921391
    231   1.170488   0.924308
    232   1.276291   0.885167
    233   1.215474   0.907042
    234   1.157347   0.929540
    235   1.090632   0.957549
    236   1.110232   0.949059
    237   0.968367   1.016202
    238   1.228003   0.902403
    239   1.088530   0.958473
    240   0.957973   1.021700
    241   1.255855   0.892340
    242   0.986480   1.006830
    243   1.158525   0.929068
    244   1.031499   0.984613
    245   1.160800   0.928157
    246   1.017410   0.991407
    247   0.962687   1.019195
    248   1.197335   0.913886
    249   1.118600   0.945502
    250   1.283856   0.882555
    251   0.987089   1.006519
    252   0.991935   1.004057
    253   1.010801   0.994643
    254   1.229787   0.901748
    255   1.063225   0.969812
    256   1.066434   0.968352
    257   1.173939   0.922948
    258   1.165780   0.926172
    259   1.197473   0.913834
    260   1.259610   0.891009
    261   0.985308   1.007428
    262   1.098162   0.954260
    263   1.091329   0.957243
    264   1.135770   0.938328
    265   1.067904   0.967685
    266   1.057918   0.972241
    267   1.100598   0.953203
    268   1.122480   0.943867
    269   1.019418   0.990430
    270   1.208674   0.909589
    271   1.050479   0.975678
    272   0.989969   1.005054
    273   1.008835   0.995611
    274   1.270679   0.887119
    275   1.104104   0.951689
    276   1.180019   0.920567
    277   1.075254   0.964372
    278   1.071088   0.966245
    279   1.025350   0.987561
    280   1.243122   0.896898
    281   1.011188   0.994453
    282   0.973902   1.013310
    283   1.120952   0.944510
    284   0.975195   1.012638
    285   0.995677   1.002169
    286   1.062213   0.970273
    287   0.947401   1.027385
    288   1.250487   0.894253
    289   1.255904   0.892322
    290   1.101828   0.952671
    291   1.037014   0.981991
    292   0.962706   1.019185
    293   0.949867   1.026050
    294   1.150166   0.932437
    295   1.040395   0.980394
    296   0.973203   1.013674
    297   1.154990   0.930488
    298   1.188941   0.917107
    299   1.110902   0.948773
    300   1.106305   0.950742
    301   1.030130   0.985267
    302   1.018715   0.990772
    303   1.178815   0.921037
    304   1.206941   0.910242
    305   1.207784   0.909925
    306   1.191441   0.916144
    307   0.973902   1.013310
    308   1.231471   0.901131
    309   1.118848   0.945397
    310   0.968229   1.016274
    311   1.064530   0.969217
    312   0.965992   1.017450
    313   1.129809   0.940800
    314   1.135224   0.938554
    315   0.962318   1.019391
    316   1.058601   0.971928
    317   1.190737   0.916415
    318   1.054261   0.973926
    319   1.106077   0.950840
    320   0.993113   1.003461
    321   1.008618   0.995719
    322   1.134467   0.938867
    323   0.978670   1.010839
    324   1.024656   0.987895
    325   0.967811   1.016494
    326   1.075474   0.964273
    327   0.979648   1.010334
    328   1.238653   0.898515
    329   1.093711   0.956200
    330   1.131059   0.940281
    331   1.195706   0.914509
    332   1.034324   0.983268
    333   1.022056   0.989151
    334   1.212965   0.907979
    335   0.994562   1.002730
    336   1.008876   0.995591
    337   1.114785   0.947119
    338   1.211586   0.908496
    339   1.031470   0.984627
    340   1.111809   0.948385
    341   0.940441   1.031179
    342   1.003531   0.998239
    343   1.178018   0.921349
    344   1.017462   0.991381
    345   1.125868   0.942446
    346   1.048307   0.976688
    347   0.994506   1.002758
    348   1.041122   0.980052
    349   1.185833   0.918308
    350   1.203477   0.911551
    351   1.070247   0.966625
    352   1.008149   0.995950
    353   1.203418   0.911573
    354   1.134290   0.938940
    355   1.172927   0.923346
    356   0.974577   1.012959
    357   1.154103   0.930846
    358   1.004834   0.997592
    359   1.184781   0.918715
    360   1.039731   0.980707
    361   1.105738   0.950985
    362   1.168995   0.924898
    363   1.174709   0.922646
    364   1.007934   0.996056
    365   1.221079   0.904957
    366   1.043330   0.979015
    367   0.956114   1.022692
    368   0.974495   1.013002
    369   1.115520   0.946807
    370   1.141308   0.936049
    371   1.215583   0.907001
    372   1.112439   0.948117
    373   1.105037   0.951287
    374   1.169636   0.924644
    375   1.188214   0.917387
    376   0.995539   1.002238
    377   0.963290   1.018876
    378   0.975049   1.012714
    379   1.162370   0.927530
    380   1.173904   0.922962
    381   1.148514   0.933108
    382   1.039113   0.980999
    383   0.972028   1.014286
    384   1.105883   0.950923
    385   0.991217   1.004421
    386   1.002659   0.998673
    387   1.201974   0.912121
    388   0.949940   1.026011
    389   1.026675   0.986924
    390   1.209576   0.909250
    391   0.930326   1.036770
    392   1.154930   0.930512
    393   0.962156   1.019477
    394   1.063657   0.969615
    395   1.138230   0.937314
    396   1.145384   0.934382
    397   0.955672   1.022929
    398   1.122654   0.943793
    399   1.185593   0.918401
    400   0.933761   1.034861
    401   1.044689   0.978378
    402   1.105033   0.951289
    403   1.177132   0.921696
    404   1.037878   0.981583
    405   0.932853   1.035365
    406   1.126479   0.942190
    407   1.178133   0.921304
    408   0.945102   1.028633
    409   1.184088   0.918984
    410   1.037640   0.981695
    411   1.172963   0.923332
    412   1.150182   0.932431
    413   0.936841   1.033159
    414   0.945708   1.028304
    415   0.991714   1.004169
    416   1.154193   0.930809
    417   0.989186   1.005451
    418   0.979502   1.010409
    419   0.995479   1.002268
    420   1.117969   0.945769
    421   0.940946   1.030903
    422   1.178545   0.921143
    423   1.038355   0.981357
    424   1.058966   0.971760
    425   1.014705   0.992728
    426   1.078218   0.963045
    427   1.097502   0.954547
    428   0.937364   1.032870
    429   1.067992   0.967645
    430   1.035066   0.982915
    431   1.129554   0.940907
    432   1.121877   0.944121
    433   1.013972   0.993086
    434   1.132023   0.939880
    435   1.162366   0.927531
    436   1.176360   0.921998
    437   1.085391   0.959858
    438   1.056626   0.972835
    439   1.089286   0.958140
    440   0.951194   1.025334
    441   0.984701   1.007739
    442   0.991121   1.004469
    443   0.980300   1.009998
    444   0.991117   1.004471
    445   0.944487   1.028968
    446   1.091261   0.957273
    447   1.017962   0.991138
    448   0.916313   1.044668
    449   0.965811   1.017546
    450   0.985873   1.007139
    451   0.998057   1.000973
    452   1.092149   0.956884
    453   0.996808   1.001600
    454   0.974581   1.012957
    455   0.935595   1.033846
    456   1.005583   0.997220
    457   0.965347   1.017790
    458   1.105298   0.951175
    459   0.942781   1.029899
    460   1.030094   0.985285
    461   0.963418   1.018808
    462   1.029536   0.985551
    463   1.091289   0.957260
    464   0.962634   1.019223
    465   1.084065   0.960445
    466   1.135040   0.938630
    467   1.048080   0.976794
    468   1.032126   0.984314
    469   0.995539   1.002238
    470   0.942102   1.030270
    471   0.947431   1.027368
    472   0.970337   1.015170
    473   0.953460   1.024115
    474   1.051122   0.975379
    475   1.028162   0.986210
    476   1.071807   0.965921
    477   1.024287   0.988073
    478   0.951834   1.024989
    479   0.928435   1.037825
    480   1.043387   0.978988
    481   0.959775   1.020740
    482   0.991625   1.004214
    483   1.094271   0.955955
    484   1.113976   0.947463
    485   1.116244   0.946500
    486   0.929904   1.037005
    487   1.132760   0.939574
    488   1.089245   0.958158
    489   0.986179   1.006983
    490   1.017192   0.991513
    491   0.943843   1.029319
    492   1.126309   0.942261
    493   1.129043   0.941120
    494   1.030374   0.985150
    495   1.081095   0.961763
    496   0.999072   1.000465
    497   1.016762   0.991723
    498   0.908303   1.049264
    499   0.982767   1.008730
    500   1.004687   0.997665
    501   1.082478   0.961149
    502   1.036905   0.982043
    503   1.068603   0.967368
    504   0.984757   1.007710
    505   0.979499   1.010411
    506   1.045200   0.978139
    507   1.034832   0.983026
    508   0.999407   1.000297
    509   1.056106   0.973075
    510   1.016788   0.991710
    511   0.968911   1.015916
    512   1.085351   0.959875
    513   0.956070   1.022716
    514   0.976014   1.012213
    515   1.046026   0.977752
    516   1.057577   0.972398
    517   0.954149   1.023745
    518   0.972578   1.014000
    519   0.936251   1.033484
    520   0.941489   1.030606
    521   0.998210   1.000896
    522   0.952757   1.024493
    523   1.109688   0.949291
    524   1.068256   0.967525
    525   1.000796   0.999602
    526   1.092499   0.956730
    527   0.954316   1.023656
    528   1.110478   0.948954
    529   0.914745   1.045562
    530   0.911230   1.047577
    531   0.939722   1.031574
    532   0.933137   1.035207
    533   1.101893   0.952643
    534   0.984035   1.008080
    535   0.912951   1.046589
    536   1.083290   0.960788
    537   1.119412   0.945159
    538   0.959019   1.021143
    539   0.915830   1.044943
    540   0.965205   1.017865
    541   1.007376   0.996332
    542   0.900507   1.053796
    543   0.963317   1.018862
    544   1.068774   0.967291
    545   0.942072   1.030286
    546   0.923230   1.040747
    547   1.066706   0.968228
    548   0.976467   1.011978
    549   1.049564   0.976103
    550   0.992329   1.003858
    551   0.973284   1.013632
    552   1.046769   0.977405
    553   0.900685   1.053692
    554   1.107866   0.950072
    555   1.062378   0.970198
    556   0.968191   1.016295
    557   0.944643   1.028883
    558   0.934416   1.034498
    559   1.041077   0.980073
    560   0.903274   1.052181
    561   1.039694   0.980725
    562   1.027988   0.986293
    563   0.954695   1.023453
    564   0.898507   1.054968
    565   1.066641   0.968257
    566   0.998736   1.000633
    567   0.892723   1.058380
    568   0.939677   1.031598
    569   0.970744   1.014957
    570   0.995548   1.002233
    571   1.029682   0.985481
    572   0.997136   1.001435
    573   1.039321   0.980901
    574   1.004997   0.997511
    575   0.979794   1.010259
    576   0.996857   1.001575
    577   0.992977   1.003530
    578   0.892588   1.058460
    579   0.893279   1.058051
    580   0.996953   1.001527
    581   0.999691   1.000155
    582   0.971344   1.014644
    583   1.024962   0.987748
    584   1.007900   0.996073
    585   1.049451   0.976155
    586   0.895534   1.056718
    587   0.894404   1.057385
    588   0.999542   1.000229
    589   1.075091   0.964445
    590   0.912468   1.046866
    591   0.892358   1.058596
    592   0.936667   1.033255
    593   0.927013   1.038621
    594   1.065826   0.968628
    595   1.059283   0.971615
    596   0.963375   1.018832
    597   1.037791   0.981624
    598   1.053936   0.974076
    599   0.951140   1.025363
    600   0.891104   1.059341
    601   0.889666   1.060197
    602   0.942211   1.030211
    603   0.952649   1.024551
    604   0.906445   1.050339
    605   0.915757   1.044985
    606   0.979748   1.010282
    607   1.003507   0.998251
    608   0.978847   1.010747
    609   1.059405   0.971559
    610   0.923404   1.040649
    611   0.890337   1.059797
    612   1.064685   0.969146
    613   0.966414   1.017228
    614   1.004611   0.997703
    615   0.893275   1.058053
    616   0.944407   1.029012
    617   1.062939   0.969942
    618   1.032367   0.984199
    619   1.067545   0.967848
    620   1.055882   0.973178
    621   1.030179   0.985244
    622   0.931490   1.036122
    623   0.970759   1.014949
    624   1.028027   0.986274
    625   1.056502   0.972893
    626   0.917186   1.044170
    627   1.022199   0.989082
    628   0.978542   1.010905
    629   0.929703   1.037117
    630   0.934568   1.034414
    631   0.946881   1.027667
    632   0.878305   1.067032
    633   1.041867   0.979702
    634   1.034895   0.982996
    635   0.977108   1.011646
    636   0.994227   1.002899
    637   0.905693   1.050774
    638   1.004954   0.997532
    639   0.964946   1.018002
    640   1.001780   0.999111
    641   0.960851   1.020168
    642   0.880290   1.065828
    643   1.053345   0.974349
    644   0.879006   1.066606
    645   1.013898   0.993123
    646   0.930685   1.036570
    647   1.052045   0.974951
    648   0.902152   1.052834
    649   1.022263   0.989051
    650   0.939078   1.031928
    651   0.968326   1.016223
    652   0.971482   1.014571
    653   1.011967   0.994070
    654   0.950943   1.025469
    655   0.905384   1.050954
    656   0.877348   1.067613
    657   0.936808   1.033177
    658   0.925643   1.039389
    659   0.896481   1.056159
    660   0.897399   1.055619
    661   0.873775   1.069794
    662   0.957323   1.022047
    663   1.002057   0.998973
    664   0.953683   1.023996
    665   0.881956   1.064821
    666   0.893520   1.057908
    667   0.905113   1.051111
    668   0.968934   1.015905
    669   0.969571   1.015571
    670   0.919297   1.042970
    671   0.962641   1.019220
    672   0.903994   1.051761
    673   1.012908   0.993608
    674   0.995015   1.002502
    675   0.988511   1.005794
    676   1.002941   0.998533
    677   0.906656   1.050216
    678   0.874317   1.069462
    679   0.924555   1.040001
    680   0.933532   1.034988
    681   0.881821   1.064902
    682   0.948194   1.026955
    683   0.889431   1.060337
    684   0.961387   1.019884
    685   0.980264   1.010017
    686   0.978252   1.011055
    687   0.982246   1.008997
    688   0.907364   1.049807
    689   0.935258   1.034033
    690   0.955416   1.023066
    691   1.012780   0.993670
    692   0.874883   1.069116
    693   0.969469   1.015624
    694   0.886210   1.062262
    695   0.943237   1.029650
    696   0.943274   1.029630
    697   0.876575   1.068084
    698   0.929991   1.036956
    699   1.013924   0.993110
    700   0.966944   1.016949
    701   0.973511   1.013514
    702   0.923207   1.040759
    703   0.887324   1.061595
    704   0.864807   1.075327
    705   0.991648   1.004203
    706   0.948698   1.026682
    707   0.993143   1.003446
    708   0.934401   1.034507
    709   0.980938   1.009669
    710   0.872788   1.070399
    711   0.859669   1.078535
    712   0.929255   1.037367
    713   0.882933   1.064231
    714   0.977562   1.011411
    715   0.983471   1.008369
    716   0.911999   1.047135
    717   0.921619   1.041656
    718   0.902971   1.052357
    719   0.937318   1.032896
    720   0.991766   1.004143
    721   0.866371   1.074355
    722   0.877158   1.067729
    723   0.947595   1.027279
    724   1.004314   0.997850
    725   0.929900   1.037007
    726   0.937888   1.032582
    727   0.951018   1.025429
    728   0.873242   1.070121
    729   0.978404   1.010976
    730   0.885746   1.062541
    731   0.922350   1.041243
    732   0.996250   1.001880
    733   0.921712   1.041603
    734   0.910675   1.047896
    735   0.970825   1.014915
    736   0.864928   1.075252
    737   0.855351   1.081254
    738   0.903609   1.051985
    739   0.939901   1.031476
    740   0.872971   1.070287
    741   0.925168   1.039656
    742   0.929269   1.037359
    743   0.892496   1.058514
    744   0.887892   1.061256
    745   0.888355   1.060979
    746   0.974477   1.013011
    747   0.991317   1.004370
    748   0.967869   1.016463
    749   0.967560   1.016625
    750   0.864464   1.075540
    751   0.923356   1.040676
    752   0.876456   1.068157
    753   0.851981   1.083391
    754   0.979450   1.010436
    755   0.919200   1.043026
    756   0.955559   1.022989
    757   0.900725   1.053668
    758   0.863004   1.076449
    759   0.903383   1.052117
    760   0.981055   1.009609
    761   0.977558   1.011413
    762   0.912873   1.046634
    763   0.854000   1.082109
    764   0.906435   1.050344
    765   0.956478   1.022498
    766   0.853882   1.082184
    767   0.857008   1.080208
    768   0.943824   1.029330
    769   0.884352   1.063377
    770   0.925069   1.039712
    771   0.848557   1.085574
    772   0.911969   1.047152
    773   0.943708   1.029393
    774   0.872060   1.070846
    775   0.873371   1.070042
    776   0.932790   1.035400
    777   0.943397   1.029563
    778   0.960881   1.020153
    779   0.959726   1.020767
    780   0.861798   1.077202
    781   0.883503   1.063888
    782   0.849905   1.084713
    783   0.845190   1.087734
    784   0.963155   1.018948
    785   0.945906   1.028196
    786   0.923285   1.040716
    787   0.855034   1.081454
    788   0.878717   1.066781
    789   0.873853   1.069746
    790   0.942653   1.029969
    791   0.847447   1.086285
    792   0.919297   1.042971
    793   0.904971   1.051194
    794   0.923261   1.040729
    795   0.917022   1.044264
    796   0.847304   1.086376
    797   0.933514   1.034998
    798   0.934099   1.034674
    799   0.894169   1.057524
    800   0.956900   1.022272
    801   0.855627   1.081080
    802   0.871482   1.071201
    803   0.897388   1.055625
    804   0.872707   1.070448
    805   0.878188   1.067103
    806   0.926550   1.038881
    807   0.905109   1.051113
    808   0.874018   1.069646
    809   0.882174   1.064689
    810   0.899091   1.054625
    811   0.857040   1.080188
    812   0.884852   1.063077
    813   0.913434   1.046312
    814   0.903269   1.052183
    815   0.853415   1.082480
    816   0.907287   1.049851
    817   0.897362   1.055641
    818   0.909683   1.048467
    819   0.932121   1.035771
    820   0.900697   1.053685
    821   0.845111   1.087785
    822   0.932835   1.035375
    823   0.857571   1.079854
    824   0.926265   1.039040
    825   0.831720   1.096507
    826   0.902370   1.052708
    827   0.933806   1.034836
    828   0.932080   1.035794
    829   0.900628   1.053725
    830   0.830279   1.097458
    831   0.885762   1.062531
    832   0.826763   1.099789
    833   0.837386   1.092791
    834   0.827410   1.099359
    835   0.841854   1.089887
    836   0.932084   1.035792
    837   0.927808   1.038176
    838   0.854480   1.081805
    839   0.897788   1.055390
    840   0.915757   1.044985
    841   0.831299   1.096784
    842   0.925784   1.039310
    843   0.828373   1.098720
    844   0.828907   1.098366
    845   0.876026   1.068418
    846   0.848870   1.085374
    847   0.884107   1.063525
    848   0.874379   1.069425
    849   0.868798   1.072854
    850   0.864844   1.075303
    851   0.873091   1.070213
    852   0.882409   1.064548
    853   0.874952   1.069074
    854   0.916432   1.044600
    855   0.896604   1.056087
    856   0.901627   1.053141
    857   0.881531   1.065078
    858   0.857934   1.079625
    859   0.853622   1.082349
    860   0.891962   1.058831
    861   0.850407   1.084393
    862   0.883635   1.063809
    863   0.857726   1.079756
    864   0.901716   1.053089
    865   0.893600   1.057861
    866   0.817211   1.106198
    867   0.870745   1.071654
    868   0.841550   1.090084
    869   0.897511   1.055553
    870   0.830432   1.097357
    871   0.882428   1.064536
    872   0.824778   1.101112
    873   0.834745   1.094518
    874   0.817500   1.106002
    875   0.831767   1.096476
    876   0.818085   1.105607
    877   0.886510   1.062082
    878   0.897415   1.055609
    879   0.826985   1.099641
    880   0.843226   1.089000
    881   0.832495   1.095997
    882   0.855738   1.081009
    883   0.856298   1.080656
    884   0.839211   1.091602
    885   0.856256   1.080682
    886   0.892238   1.058668
    887   0.864270   1.075660
    888   0.847794   1.086062
    889   0.852649   1.082966
    890   0.860127   1.078248
    891   0.849377   1.085050
    892   0.842163   1.089687
    893   0.875086   1.068993
    894   0.868416   1.073090
    895   0.847217   1.086432
    896   0.818574   1.105276
    897   0.832418   1.096047
    898   0.826852   1.099730
    899   0.813814   1.108505
    900   0.840197   1.090962
    901   0.873912   1.069710
    902   0.816243   1.106854
    903   0.819640   1.104558
    904   0.834253   1.094841
    905   0.841506   1.090112
    906   0.874559   1.069314
    907   0.865422   1.074945
    908   0.847789   1.086066
    909   0.809471   1.111474
    910   0.828419   1.098690
    911   0.814805   1.107830
    912   0.852080   1.083327
    913   0.810447   1.110805
    914   0.820433   1.104024
    915   0.809435   1.111499
    916   0.839811   1.091212
    917   0.847164   1.086466
    918   0.821777   1.103121
    919   0.810979   1.110440
    920   0.842715   1.089331
    921   0.859429   1.078686
    922   0.803504   1.115594
    923   0.825081   1.100910
    924   0.830201   1.097509
    925   0.839247   1.091579
    926   0.809650   1.111351
    927   0.815278   1.107508
    928   0.820987   1.103651
    929   0.795774   1.120999
    930   0.793234   1.122792
    931   0.792078   1.123611
    932   0.811819   1.109866
    933   0.800241   1.117865
    934   0.851827   1.083488
    935   0.814250   1.108207
    936   0.839499   1.091415
    937   0.811801   1.109878
    938   0.812322   1.109522
    939   0.803258   1.115764
    940   0.815324   1.107477
    941   0.812031   1.109721
    942   0.799154   1.118625
    943   0.788286   1.126310
    944   0.830597   1.097248
    945   0.816059   1.106979
    946   0.836311   1.093494
    947   0.800972   1.117355
    948   0.788536   1.126132
    949   0.803737   1.115432
    950   0.787181   1.127101
    951   0.829701   1.097841
    952   0.793026   1.122939
    953   0.800686   1.117555
    954   0.813797   1.108516
    955   0.826948   1.099666
    956   0.788558   1.126116
    957   0.822971   1.102320
    958   0.782603   1.130392
    959   0.799139   1.118636
    960   0.804191   1.115117
    961   0.790073   1.125036
    962   0.817034   1.106318
    963   0.800664   1.117570
    964   0.783598   1.129674
    965   0.807104   1.113103
    966   0.802296   1.116433
    967   0.789805   1.125227
    968   0.810155   1.111005
    969   0.787282   1.127028
    970   0.806993   1.113179
    971   0.806214   1.113717
    972   0.791354   1.124125
    973   0.803733   1.115435
    974   0.781384   1.131274
    975   0.787153   1.127121
    976   0.788170   1.126393
    977   0.776341   1.134942
    978   0.785562   1.128262
    979   0.776841   1.134577
    980   0.796344   1.120598
    981   0.791170   1.124256
    982   0.798718   1.118931
    983   0.791724   1.123862
    984   0.771307   1.138640
    985   0.770329   1.139363
    986   0.781206   1.131403
    987   0.779483   1.132652
    988   0.775860   1.135294
    989   0.767807   1.141232