LAMMPS data file.
    975 atoms
   2376 bonds
      0 angles
      0 dihedrals
      0 impropers
      1 atom types
   2376 bond types
      0 angle types
      0 dihedral types
      0 improper types
 -11.405491  11.405491 xlo xhi
 -11.405491  11.405491 ylo yhi
       -0.1        0.1 zlo zhi

Atoms # ['atomID', 'atomType', 'diameter', 'density', 'x', 'y', 'z']

    943      1      1   0.000000 -11.072396 -10.904928        0.0
    981      1      1   0.000000  -10.15106  -11.22797        0.0
    569      1      1   0.000000  -9.213342 -11.106185        0.0
    856      1      1   0.000000   -8.35398 -11.009091        0.0
    620      1      1   0.000000  -7.441712 -11.180725        0.0
    343      1      1   0.000000  -6.747781 -10.888449        0.0
    881      1      1   0.000000  -5.998045  -11.21443        0.0
      6      1      1   0.000000  -5.454167 -10.756026        0.0
    191      1      1   0.000000  -5.067995 -11.154838        0.0
     14      1      1   0.000000  -4.555087 -11.019434        0.0
    831      1      1   0.000000  -3.873951  -11.21673        0.0
    279      1      1   0.000000  -3.025508 -10.653903        0.0
    843      1      1   0.000000   -2.28071 -11.047151        0.0
    212      1      1   0.000000  -0.994793 -11.111511        0.0
    403      1      1   0.000000  -0.435234 -10.604408        0.0
    788      1      1   0.000000   0.360833 -10.898075        0.0
     75      1      1   0.000000   1.060847  -10.73836        0.0
     12      1      1   0.000000   0.939957 -11.347235        0.0
    277      1      1   0.000000   1.529467 -11.164073        0.0
    395      1      1   0.000000    2.24321 -11.197964        0.0
    865      1      1   0.000000   3.064363 -11.152387        0.0
    985      1      1   0.000000   3.856451 -10.851535        0.0
    903      1      1   0.000000    5.17141 -11.066641        0.0
    312      1      1   0.000000   5.866826  11.237798        0.0
    209      1      1   0.000000   6.403265 -11.275542        0.0
    488      1      1   0.000000    7.53979 -11.093389        0.0
     42      1      1   0.000000   6.919892  11.315965        0.0
    368      1      1   0.000000   8.938913  -10.93766        0.0
    490      1      1   0.000000   9.564355 -11.031406        0.0
    706      1      1   0.000000  10.329887 -10.828233        0.0
     76      1      1   0.000000  10.972528 -10.758872        0.0
    344      1      1   0.000000 -10.884466 -10.093209        0.0
    141      1      1   0.000000 -10.360407  -10.43407        0.0
    663      1      1   0.000000  -9.725758 -10.425967        0.0
    535      1      1   0.000000  -8.948524 -10.332142        0.0
     63      1      1   0.000000  -8.234423 -10.327348        0.0
    158      1      1   0.000000  -7.786439 -10.558993        0.0
    173      1      1   0.000000  -7.291198 -10.479274        0.0
    586      1      1   0.000000  -6.763566 -10.051462        0.0
    255      1      1   0.000000   -6.15189  -10.41605        0.0
    100      1      1   0.000000  -5.485733 -10.185179        0.0
    947      1      1   0.000000  -4.848667 -10.334554        0.0
    143      1      1   0.000000  -4.126766 -10.541711        0.0
     71      1      1   0.000000  -3.604081  -10.51368        0.0
    529      1      1   0.000000      -2.37 -10.150311        0.0
    942      1      1   0.000000  -1.422909 -10.519839        0.0
    793      1      1   0.000000  -0.763001  -9.850492        0.0
    753      1      1   0.000000   0.176031  -9.988055        0.0
    335      1      1   0.000000   0.921909 -10.146713        0.0
    266      1      1   0.000000   1.552316  -9.871289        0.0
    639      1      1   0.000000   1.828175 -10.509127        0.0
    411      1      1   0.000000   2.608817 -10.633668        0.0
    928      1      1   0.000000   3.323438 -10.103275        0.0
    610      1      1   0.000000   4.157009  -9.989764        0.0
    243      1      1   0.000000   4.556946 -10.671801        0.0
    972      1      1   0.000000   5.053748 -10.093177        0.0
    878      1      1   0.000000   6.008939 -10.718116        0.0
    896      1      1   0.000000   6.678307 -10.005432        0.0
    524      1      1   0.000000   6.890024 -10.791324        0.0
    911      1      1   0.000000    8.15183 -10.529454        0.0
    357      1      1   0.000000    8.83693  -9.974841        0.0
    962      1      1   0.000000   9.631463 -10.318052        0.0
    817      1      1   0.000000  10.583808 -10.095993        0.0
    133      1      1   0.000000  11.342499 -10.270866        0.0
    236      1      1   0.000000  -10.78315  -9.464783        0.0
    746      1      1   0.000000 -10.202112  -9.744267        0.0
    661      1      1   0.000000  -8.509443  -9.698724        0.0
    965      1      1   0.000000  -7.610632   -9.76826        0.0
    442      1      1   0.000000  -8.152747  -9.045241        0.0
    983      1      1   0.000000  -6.753906  -9.247502        0.0
    992      1      1   0.000000  -5.932397  -9.620717        0.0
    958      1      1   0.000000   -4.98908  -9.423449        0.0
    154      1      1   0.000000  -4.345295  -9.178822        0.0
     99      1      1   0.000000  -3.823282  -9.315885        0.0
    990      1      1   0.000000  -3.244966  -9.883756        0.0
    886      1      1   0.000000  -2.512316  -9.293381        0.0
    637      1      1   0.000000  -1.719501  -9.642047        0.0
    182      1      1   0.000000  -1.119006  -9.199816        0.0
    445      1      1   0.000000  -0.446449  -9.083094        0.0
    250      1      1   0.000000   0.125788  -9.283234        0.0
    800      1      1   0.000000   0.888633  -9.424125        0.0
    574      1      1   0.000000   1.677564  -9.171168        0.0
    880      1      1   0.000000   2.411441  -9.796599        0.0
    257      1      1   0.000000   3.160867  -9.323152        0.0
     49      1      1   0.000000   3.759894  -9.401297        0.0
    736      1      1   0.000000    4.50217  -9.330194        0.0
    448      1      1   0.000000   5.809078  -9.980515        0.0
    287      1      1   0.000000   6.137157  -9.407453        0.0
    936      1      1   0.000000   8.128238  -9.592982        0.0
     80      1      1   0.000000   8.861227  -9.324941        0.0
    487      1      1   0.000000   9.475918  -9.538712        0.0
    189      1      1   0.000000   9.993966  -9.646637        0.0
    274      1      1   0.000000  10.695699  -9.277277        0.0
    585      1      1   0.000000  11.364435  -9.605451        0.0
    501      1      1   0.000000 -11.077999  -8.893491        0.0
    320      1      1   0.000000 -10.221376  -8.960146        0.0
    702      1      1   0.000000  -9.644276  -8.488805        0.0
    773      1      1   0.000000  -8.979322   -8.98848        0.0
    673      1      1   0.000000  -7.497027   -8.89054        0.0
    222      1      1   0.000000  -7.006221  -8.445392        0.0
    797      1      1   0.000000  -5.529225  -8.734198        0.0
    451      1      1   0.000000  -4.726742  -8.645886        0.0
    407      1      1   0.000000   -4.05818  -8.727243        0.0
    617      1      1   0.000000  -3.292069  -8.995242        0.0
    263      1      1   0.000000  -2.324234  -8.445378        0.0
    362      1      1   0.000000  -2.999743  -8.313102        0.0
    735      1      1   0.000000  -1.729628  -8.859022        0.0
    153      1      1   0.000000  -1.106464  -8.642721        0.0
     73      1      1   0.000000  -0.202787  -8.552113        0.0
    716      1      1   0.000000   0.430903  -8.661812        0.0
    363      1      1   0.000000   1.185971  -8.665697        0.0
    871      1      1   0.000000   2.478726  -8.858194        0.0
     32      1      1   0.000000   3.210387  -8.681655        0.0
    378      1      1   0.000000   3.998084  -8.847719        0.0
    517      1      1   0.000000   4.662892  -8.535717        0.0
    755      1      1   0.000000   5.388574  -9.205704        0.0
    696      1      1   0.000000   6.072343  -8.659437        0.0
    864      1      1   0.000000   6.924519  -9.053088        0.0
    262      1      1   0.000000   7.480726  -8.463164        0.0
    118      1      1   0.000000   7.658858  -9.026438        0.0
    908      1      1   0.000000   8.406572  -8.693023        0.0
    930      1      1   0.000000   9.379601  -8.780569        0.0
    457      1      1   0.000000  10.070643  -8.533563        0.0
     74      1      1   0.000000  10.705981  -8.611218        0.0
    172      1      1   0.000000  11.105842  -8.830253        0.0
    974      1      1   0.000000 -10.566846  -8.247609        0.0
    108      1      1   0.000000  -9.918832  -7.879444        0.0
    352      1      1   0.000000  -9.368566  -7.745607        0.0
    235      1      1   0.000000  -8.997763  -8.258968        0.0
    848      1      1   0.000000   -8.14347  -8.274618        0.0
    374      1      1   0.000000   -7.40224  -7.980097        0.0
    759      1      1   0.000000  -6.643252  -7.794077        0.0
    689      1      1   0.000000  -5.160216  -7.899589        0.0
    861      1      1   0.000000  -4.300261  -7.980997        0.0
    197      1      1   0.000000  -3.583305  -8.360208        0.0
    796      1      1   0.000000  -2.470297  -7.628339        0.0
    935      1      1   0.000000  -1.622141  -8.085487        0.0
    589      1      1   0.000000  -0.742231  -8.131821        0.0
    674      1      1   0.000000   0.096325  -7.969962        0.0
   1000      1      1   0.000000   0.963157  -7.913845        0.0
    966      1      1   0.000000   1.843237  -8.218102        0.0
    791      1      1   0.000000   2.801728  -8.051998        0.0
    337      1      1   0.000000   3.626653  -8.292217        0.0
     52      1      1   0.000000   4.215163  -8.015485        0.0
    694      1      1   0.000000    5.33049  -8.341381        0.0
    397      1      1   0.000000   4.772635  -7.821227        0.0
    854      1      1   0.000000   6.010821  -7.814309        0.0
    630      1      1   0.000000   6.766768  -8.225677        0.0
    109      1      1   0.000000   7.420886  -7.896825        0.0
    604      1      1   0.000000   8.045708   -7.97655        0.0
    859      1      1   0.000000   8.894414  -7.982131        0.0
    798      1      1   0.000000    9.74292  -7.737435        0.0
    812      1      1   0.000000  11.276611  -8.110808        0.0
    195      1      1   0.000000 -10.941076  -7.529342        0.0
    665      1      1   0.000000 -10.298044  -7.432683        0.0
    619      1      1   0.000000  -9.508512  -7.031385        0.0
    945      1      1   0.000000  -8.650504  -7.522355        0.0
    405      1      1   0.000000  -7.853361  -7.447737        0.0
     28      1      1   0.000000  -8.172053  -6.884902        0.0
    132      1      1   0.000000  -7.213595  -7.385118        0.0
    811      1      1   0.000000  -5.868562  -7.274201        0.0
    192      1      1   0.000000  -5.195025    -7.1281        0.0
    303      1      1   0.000000  -4.631226  -7.303877        0.0
    675      1      1   0.000000  -4.078158  -6.882476        0.0
    960      1      1   0.000000  -3.398599  -7.604991        0.0
    318      1      1   0.000000  -3.115369  -6.832585        0.0
    762      1      1   0.000000  -1.654191  -7.136703        0.0
     66      1      1   0.000000  -1.067535  -7.562753        0.0
    553      1      1   0.000000  -0.409465  -7.378077        0.0
    633      1      1   0.000000   0.393157  -7.206473        0.0
    995      1      1   0.000000    1.19438  -7.086033        0.0
    921      1      1   0.000000   2.144179   -7.29086        0.0
    162      1      1   0.000000   2.879959  -7.270611        0.0
    888      1      1   0.000000   3.614783  -7.515493        0.0
     92      1      1   0.000000   4.277544  -7.379466        0.0
     11      1      1   0.000000   3.981998  -6.853031        0.0
     78      1      1   0.000000   5.338015  -7.535547        0.0
    835      1      1   0.000000   4.934108  -6.952025        0.0
    275      1      1   0.000000   5.758222  -7.115145        0.0
    891      1      1   0.000000   6.860599  -7.379412        0.0
    440      1      1   0.000000   7.726262  -7.254218        0.0
    513      1      1   0.000000   8.462201  -7.303646        0.0
    371      1      1   0.000000   9.153398  -7.162221        0.0
    461      1      1   0.000000  10.010916  -6.960272        0.0
    560      1      1   0.000000  11.286237  -7.217993        0.0
    433      1      1   0.000000 -10.855834  -6.886451        0.0
    355      1      1   0.000000  -10.14408  -6.745212        0.0
    968      1      1   0.000000  -8.847086  -6.593836        0.0
    421      1      1   0.000000  -8.025654  -6.324735        0.0
    392      1      1   0.000000   -7.50549  -6.841521        0.0
    868      1      1   0.000000  -6.681174  -6.813481        0.0
    159      1      1   0.000000  -6.451654  -6.083439        0.0
    282      1      1   0.000000   -5.98019  -6.448734        0.0
    174      1      1   0.000000  -5.411459  -6.653837        0.0
    431      1      1   0.000000  -4.753898  -6.572292        0.0
    254      1      1   0.000000  -3.653432  -6.313315        0.0
    452      1      1   0.000000  -2.401857  -6.851075        0.0
    970      1      1   0.000000  -2.858607  -6.124921        0.0
     31      1      1   0.000000  -2.151178  -6.403634        0.0
    794      1      1   0.000000  -1.460513  -6.252331        0.0
    317      1      1   0.000000  -0.897214  -6.795126        0.0
    328      1      1   0.000000  -0.103551   -6.68194        0.0
     72      1      1   0.000000   0.695172  -6.508905        0.0
    393      1      1   0.000000   0.266899  -6.073254        0.0
    977      1      1   0.000000   1.832042  -6.427496        0.0
    644      1      1   0.000000   2.642812  -6.628277        0.0
    387      1      1   0.000000   3.315857  -6.778556        0.0
    183      1      1   0.000000   3.730026   -6.41447        0.0
    505      1      1   0.000000   4.382518  -6.314427        0.0
     44      1      1   0.000000     5.5721  -6.475089        0.0
    922      1      1   0.000000   6.369033  -6.639965        0.0
    724      1      1   0.000000   7.223368   -6.56583        0.0
    732      1      1   0.000000   8.073016  -6.582213        0.0
     57      1      1   0.000000    8.74253  -6.660771        0.0
    593      1      1   0.000000   8.660465  -6.017081        0.0
    741      1      1   0.000000   9.407111  -6.503313        0.0
    479      1      1   0.000000  10.132602  -6.251004        0.0
    481      1      1   0.000000  10.629966  -6.719365        0.0
    787      1      1   0.000000  11.359712  -6.353624        0.0
    246      1      1   0.000000   10.65247  -6.102718        0.0
    412      1      1   0.000000 -11.312924  -5.474869        0.0
    866      1      1   0.000000 -10.545319  -6.024157        0.0
    135      1      1   0.000000 -10.002502  -5.508169        0.0
    810      1      1   0.000000  -9.599739  -6.089556        0.0
    955      1      1   0.000000  -8.751619  -5.694583        0.0
    398      1      1   0.000000  -7.966789  -5.694497        0.0
    783      1      1   0.000000  -7.217798  -6.106061        0.0
     19      1      1   0.000000  -6.680479  -5.597586        0.0
    240      1      1   0.000000  -6.107025  -5.661655        0.0
    780      1      1   0.000000  -5.375682  -5.951726        0.0
    226      1      1   0.000000  -4.852327  -5.385107        0.0
    816      1      1   0.000000  -4.394837  -5.900369        0.0
    715      1      1   0.000000    -3.5528  -5.619267        0.0
    763      1      1   0.000000  -2.092816  -5.568441        0.0
    683      1      1   0.000000  -1.201233  -5.457776        0.0
    918      1      1   0.000000  -0.572923  -5.994985        0.0
    837      1      1   0.000000   0.125858  -5.256899        0.0
    827      1      1   0.000000   1.043842  -5.884366        0.0
    268      1      1   0.000000   1.782015  -5.505536        0.0
    718      1      1   0.000000   2.469735  -5.781257        0.0
    536      1      1   0.000000   3.239344  -6.011334        0.0
    249      1      1   0.000000   3.913294  -5.811919        0.0
    692      1      1   0.000000   4.491432  -5.437664        0.0
    618      1      1   0.000000   5.045999  -6.025108        0.0
    476      1      1   0.000000   5.898289  -5.946207        0.0
    380      1      1   0.000000   6.746298  -5.970855        0.0
     83      1      1   0.000000   7.055979  -5.540493        0.0
    503      1      1   0.000000   7.650035  -5.849522        0.0
    137      1      1   0.000000   8.197424  -5.493283        0.0
      8      1      1   0.000000   8.718338  -5.367474        0.0
    971      1      1   0.000000   9.460555  -5.642489        0.0
    460      1      1   0.000000  10.302014  -5.532745        0.0
    117      1      1   0.000000  10.952614  -5.724383        0.0
    867      1      1   0.000000 -10.555404  -5.081238        0.0
     26      1      1   0.000000  -9.453368  -5.316494        0.0
    511      1      1   0.000000  -9.736403  -4.709251        0.0
    265      1      1   0.000000   -8.96665  -4.919236        0.0
     38      1      1   0.000000  -8.453611   -4.58031        0.0
    151      1      1   0.000000  -8.343467  -5.130691        0.0
    155      1      1   0.000000  -7.919222   -4.87111        0.0
    870      1      1   0.000000  -7.241035  -5.160542        0.0
    493      1      1   0.000000  -6.456639  -5.022477        0.0
    855      1      1   0.000000  -5.631803   -5.06448        0.0
    721      1      1   0.000000  -4.793113  -4.724479        0.0
    280      1      1   0.000000   -4.13363  -5.130515        0.0
    129      1      1   0.000000  -3.526767  -4.959727        0.0
    523      1      1   0.000000  -2.884231  -5.179785        0.0
    288      1      1   0.000000  -1.615498  -4.950261        0.0
    372      1      1   0.000000  -0.969589  -4.685047        0.0
    168      1      1   0.000000  -0.604452  -5.162983        0.0
    325      1      1   0.000000  -0.257374  -4.517247        0.0
     81      1      1   0.000000   0.267705  -4.480639        0.0
    409      1      1   0.000000   0.877611  -5.095076        0.0
    491      1      1   0.000000   1.408531  -4.865485        0.0
    804      1      1   0.000000   2.197913  -4.879959        0.0
    302      1      1   0.000000   2.991902   -5.23674        0.0
    648      1      1   0.000000    3.69657  -5.154566        0.0
    954      1      1   0.000000   5.337689  -5.229287        0.0
    110      1      1   0.000000   5.901852   -4.70556        0.0
    761      1      1   0.000000   6.299516  -5.317657        0.0
    203      1      1   0.000000   6.948553  -4.900742        0.0
    669      1      1   0.000000    7.63605  -5.096545        0.0
    473      1      1   0.000000   8.341436  -4.850911        0.0
    662      1      1   0.000000   9.055361  -4.759489        0.0
    822      1      1   0.000000   9.925171  -4.750661        0.0
    533      1      1   0.000000  10.812158  -5.075707        0.0
    982      1      1   0.000000 -11.309024  -4.600227        0.0
    178      1      1   0.000000 -10.374143   -4.34932        0.0
    684      1      1   0.000000  -9.864637  -3.955038        0.0
     39      1      1   0.000000  -9.224882  -4.261619        0.0
    386      1      1   0.000000  -8.708537  -3.975308        0.0
    844      1      1   0.000000  -7.904154  -4.142515        0.0
    885      1      1   0.000000  -6.984665   -4.22256        0.0
    577      1      1   0.000000  -6.210541  -4.396771        0.0
    774      1      1   0.000000   -5.45662  -4.036871        0.0
    227      1      1   0.000000  -4.683837  -4.027393        0.0
    929      1      1   0.000000  -4.009803  -4.349464        0.0
    521      1      1   0.000000  -3.168766  -4.378684        0.0
    853      1      1   0.000000  -2.220807  -4.512459        0.0
     90      1      1   0.000000  -1.504015  -4.359538        0.0
    562      1      1   0.000000    -0.8255   -3.99371        0.0
    474      1      1   0.000000  -0.056589  -3.855084        0.0
    193      1      1   0.000000   0.487461  -3.857221        0.0
    739      1      1   0.000000   0.917793  -4.312403        0.0
    656      1      1   0.000000   1.694882    -4.1594        0.0
    652      1      1   0.000000    2.48491  -4.044721        0.0
    486      1      1   0.000000   3.129679  -4.606848        0.0
    636      1      1   0.000000   3.867144  -4.409824        0.0
    818      1      1   0.000000   4.675066  -4.521822        0.0
    496      1      1   0.000000   5.085045  -3.814928        0.0
      9      1      1   0.000000   5.404544  -4.510409        0.0
    775      1      1   0.000000   5.872113  -3.949093        0.0
    218      1      1   0.000000   6.408388  -4.525414        0.0
    568      1      1   0.000000   6.668445  -3.781784        0.0
    136      1      1   0.000000   6.938454  -4.316996        0.0
     46      1      1   0.000000   7.363763  -4.482694        0.0
    323      1      1   0.000000   7.964333  -4.313844        0.0
    396      1      1   0.000000   8.648919  -4.178978        0.0
    426      1      1   0.000000   9.423514  -4.155764        0.0
    200      1      1   0.000000   9.983701    -4.0553        0.0
    518      1      1   0.000000   10.62541  -4.326265        0.0
    834      1      1   0.000000  -10.74281  -3.812603        0.0
     24      1      1   0.000000  -9.306738  -3.733061        0.0
    959      1      1   0.000000  -9.757387  -3.178844        0.0
    213      1      1   0.000000  -8.932582  -3.389431        0.0
    592      1      1   0.000000  -8.250984  -3.365453        0.0
    609      1      1   0.000000  -7.284077    -3.4314        0.0
    986      1      1   0.000000  -6.373501  -3.522774        0.0
    391      1      1   0.000000  -5.640424  -3.261574        0.0
    777      1      1   0.000000  -4.818324  -3.245972        0.0
    232      1      1   0.000000   -4.20728  -3.618998        0.0
    564      1      1   0.000000  -3.491209  -3.648643        0.0
    534      1      1   0.000000  -2.672646  -3.850461        0.0
    494      1      1   0.000000  -2.350531  -3.171998        0.0
    941      1      1   0.000000  -1.773755  -3.692677        0.0
     88      1      1   0.000000  -1.150332  -3.390887        0.0
    422      1      1   0.000000  -0.469921  -3.302659        0.0
    273      1      1   0.000000   0.277384  -3.281129        0.0
    988      1      1   0.000000   1.136346  -3.513763        0.0
    394      1      1   0.000000   2.020379  -3.423301        0.0
    104      1      1   0.000000   2.641288  -3.396081        0.0
    975      1      1   0.000000   3.327805  -3.758328        0.0
    572      1      1   0.000000   4.248857  -3.763953        0.0
    413      1      1   0.000000   4.710123  -3.221234        0.0
    379      1      1   0.000000   5.544826  -3.164713        0.0
    420      1      1   0.000000   6.194113  -3.204317        0.0
    685      1      1   0.000000   7.435678  -3.804478        0.0
    216      1      1   0.000000   6.970078  -3.142001        0.0
    498      1      1   0.000000   8.163402  -3.651664        0.0
     29      1      1   0.000000   8.846009  -3.600874        0.0
    364      1      1   0.000000   8.539106  -3.074698        0.0
      5      1      1   0.000000   9.392496  -3.562581        0.0
     98      1      1   0.000000   9.142637  -3.099891        0.0
    465      1      1   0.000000   9.849504  -3.198114        0.0
    103      1      1   0.000000  10.318597  -3.596577        0.0
    769      1      1   0.000000  11.151848  -3.703952        0.0
    980      1      1   0.000000 -11.221301   -2.88022        0.0
     50      1      1   0.000000 -10.441102  -3.132744        0.0
    607      1      1   0.000000 -10.496271  -2.451057        0.0
    313      1      1   0.000000   -9.09759  -2.784832        0.0
    558      1      1   0.000000  -7.695329  -2.776027        0.0
    931      1      1   0.000000  -6.846206  -2.602833        0.0
     27      1      1   0.000000  -6.084466  -2.809974        0.0
    964      1      1   0.000000  -5.390091  -2.524686        0.0
    554      1      1   0.000000  -4.541755  -2.390883        0.0
    653      1      1   0.000000  -4.006945  -2.986634        0.0
    882      1      1   0.000000  -3.048079  -2.927143        0.0
    823      1      1   0.000000   -2.35265  -2.248128        0.0
    399      1      1   0.000000    -1.7609  -2.826981        0.0
    603      1      1   0.000000     -1.057   -2.76859        0.0
    294      1      1   0.000000  -0.516166  -2.297128        0.0
    161      1      1   0.000000  -0.136598  -2.831979        0.0
    167      1      1   0.000000    0.19591  -2.304448        0.0
    563      1      1   0.000000   0.804544  -2.679327        0.0
    224      1      1   0.000000   1.325304  -2.256276        0.0
    597      1      1   0.000000   1.646837  -2.770263        0.0
    281      1      1   0.000000   2.387932   -2.84234        0.0
    453      1      1   0.000000   3.164539  -3.003413        0.0
    890      1      1   0.000000   3.963683  -3.013604        0.0
    506      1      1   0.000000   4.622094  -2.390079        0.0
     70      1      1   0.000000   5.234872  -2.605349        0.0
    646      1      1   0.000000   5.956879  -2.533451        0.0
     54      1      1   0.000000     6.5798  -2.765172        0.0
    875      1      1   0.000000   7.647768  -2.981615        0.0
    149      1      1   0.000000   8.171876  -2.556873        0.0
    298      1      1   0.000000  10.175473   -2.36143        0.0
    894      1      1   0.000000  10.624597  -2.910809        0.0
    522      1      1   0.000000 -11.072306  -1.962167        0.0
    671      1      1   0.000000 -10.224771   -1.65541        0.0
    678      1      1   0.000000  -9.677489  -2.256136        0.0
    142      1      1   0.000000  -9.003668  -2.165545        0.0
    785      1      1   0.000000  -8.512865  -1.675646        0.0
    113      1      1   0.000000  -7.922855  -2.121888        0.0
    244      1      1   0.000000  -7.372779  -2.086403        0.0
    858      1      1   0.000000  -6.798818  -1.601569        0.0
    333      1      1   0.000000  -5.814134   -1.77618        0.0
    731      1      1   0.000000  -5.053901  -1.762783        0.0
    635      1      1   0.000000  -4.156894  -1.711234        0.0
    677      1      1   0.000000   -3.69289  -2.299743        0.0
    221      1      1   0.000000  -3.058009  -2.189713        0.0
    540      1      1   0.000000  -2.027299   -1.38039        0.0
    760      1      1   0.000000  -1.438168   -2.02401        0.0
     45      1      1   0.000000  -0.747285   -1.74721        0.0
    541      1      1   0.000000  -0.066879  -1.702912        0.0
    566      1      1   0.000000   0.728536  -1.846427        0.0
    134      1      1   0.000000   1.352967  -1.668508        0.0
    795      1      1   0.000000    2.11206  -2.055431        0.0
    314      1      1   0.000000   2.885337   -2.40101        0.0
    349      1      1   0.000000   3.563786  -2.237395        0.0
     55      1      1   0.000000   3.170387  -1.803736        0.0
      7      1      1   0.000000   4.088613  -2.045304        0.0
    463      1      1   0.000000   3.734205  -1.525795        0.0
    693      1      1   0.000000   4.549228  -1.475086        0.0
    743      1      1   0.000000   5.274911  -1.918284        0.0
    611      1      1   0.000000    5.97867   -1.68693        0.0
    342      1      1   0.000000   6.630926  -2.123524        0.0
    272      1      1   0.000000   6.693789  -1.444047        0.0
     91      1      1   0.000000    7.18721  -1.833407        0.0
    484      1      1   0.000000   7.728914  -2.075084        0.0
    199      1      1   0.000000   8.020039   -1.56109        0.0
     36      1      1   0.000000   8.348095  -2.038938        0.0
    879      1      1   0.000000   9.571826  -1.837923        0.0
    700      1      1   0.000000  10.950745  -2.183931        0.0
    698      1      1   0.000000 -11.057191  -1.216514        0.0
    180      1      1   0.000000 -10.480423  -1.000902        0.0
     21      1      1   0.000000  -9.918196  -0.978657        0.0
    765      1      1   0.000000  -9.377738  -1.504441        0.0
    238      1      1   0.000000  -8.774128  -0.964657        0.0
    738      1      1   0.000000  -8.140707  -0.897565        0.0
    499      1      1   0.000000  -7.698238  -1.479373        0.0
    264      1      1   0.000000  -7.284807  -0.912912        0.0
     58      1      1   0.000000  -6.167926  -1.223233        0.0
    416      1      1   0.000000  -6.607639  -0.807647        0.0
    638      1      1   0.000000  -5.446755  -1.058632        0.0
    382      1      1   0.000000  -4.652461  -1.068232        0.0
    206      1      1   0.000000  -4.029081  -1.060369        0.0
    557      1      1   0.000000  -3.459095  -1.385131        0.0
    631      1      1   0.000000  -2.762109  -1.558765        0.0
    643      1      1   0.000000  -1.184313  -1.285713        0.0
    177      1      1   0.000000  -0.505801  -1.232991        0.0
    857      1      1   0.000000   0.099161  -0.859399        0.0
    842      1      1   0.000000   1.033117  -0.998144        0.0
    940      1      1   0.000000   1.941908   -1.19368        0.0
    627      1      1   0.000000   2.759504  -1.373647        0.0
    909      1      1   0.000000   3.338198  -0.779377        0.0
    131      1      1   0.000000   4.052392  -1.046519        0.0
    892      1      1   0.000000   5.348619  -1.016376        0.0
    187      1      1   0.000000    6.18885  -1.112598        0.0
    605      1      1   0.000000   6.772849  -0.747348        0.0