LAMMPS data file via write_data, version 23 Jun 2022, timestep = 200000

1000 atoms
4 atom types

-11.405491061062177 11.405491061062177 xlo xhi
-11.405491061062177 11.405491061062177 ylo yhi
 0.0 0.0 zlo zhi

Atoms # sphere 
# atomID-atomType-diameter-density-x-y-z-nx-ny-nz

943 4 1 1 -11.072395729364185 -10.90492754735232 0 1 0 0
981 4 1 1 -10.151060117776275 -11.227970001332768 0 0 0 0
569 3 0.86 1.572188612323443 -9.213342318765086 -11.106185496670424 0 0 0 0
856 4 1 1 -8.353979596124196 -11.009091063384297 0 0 0 0
620 3 0.86 1.572188612323443 -7.441712102459148 -11.180725131608508 0 0 1 0
343 2 0.74 2.467770911890708 -6.747781340647374 -10.888448861581821 0 0 1 0
881 4 1 1 -5.998045497002597 -11.214430323921 0 0 1 0
6 1 0.6 4.629629629629631 -5.45416677570658 -10.756025745499256 0 0 1 0
191 1 0.6 4.629629629629631 -5.067995198633532 -11.15483759294931 0 0 1 0
14 1 0.6 4.629629629629631 -4.555086722176965 -11.0194341359611 0 0 1 0
831 4 1 1 -3.873950635254727 -11.216730311489606 0 0 0 0
279 2 0.74 2.467770911890708 -3.025507561188297 -10.65390306997146 0 0 1 0
843 4 1 1 -2.280710393951612 -11.0471507042041 0 0 1 0
212 1 0.6 4.629629629629631 -0.9947929544208556 -11.11151055261308 0 0 1 0
403 2 0.74 2.467770911890708 -0.4352336051955099 -10.604407876376388 0 0 1 0
788 4 1 1 0.3608327915607834 -10.898075049999589 0 0 0 0
75 1 0.6 4.629629629629631 1.0608468145909526 -10.738360274710406 0 0 1 0
12 1 0.6 4.629629629629631 0.9399569650163873 -11.347235241211497 0 0 0 0
277 2 0.74 2.467770911890708 1.5294673425988439 -11.164072994778794 0 0 0 0
395 2 0.74 2.467770911890708 2.2432098870151815 -11.197963667758266 0 0 0 0
865 4 1 1 3.0643632330563406 -11.152387310941716 0 0 1 0
985 4 1 1 3.856451280815243 -10.851535115480267 0 0 1 0
903 4 1 1 5.17140963671226 -11.06664087609013 0 0 1 0
312 2 0.74 2.467770911890708 5.866825973510457 11.237797594158975 0 0 0 0
209 1 0.6 4.629629629629631 6.403265304247784 -11.27554159642779 0 0 1 0
488 2 0.74 2.467770911890708 7.5397899396241055 -11.09338873027097 0 0 0 0
42 1 0.6 4.629629629629631 6.919891610207122 11.315965211312472 0 0 0 0
368 2 0.74 2.467770911890708 8.938913214110828 -10.93766016241313 0 -1 1 0
490 2 0.74 2.467770911890708 9.564354641548187 -11.031406219715624 0 0 1 0
706 3 0.86 1.572188612323443 10.32988743170384 -10.82823305759817 0 -1 0 0
76 1 0.6 4.629629629629631 10.972527884212417 -10.758871947124046 0 0 0 0
344 2 0.74 2.467770911890708 -10.884465574224864 -10.093208726808305 0 0 1 0
141 1 0.6 4.629629629629631 -10.360407134642804 -10.434070279203752 0 1 0 0
663 3 0.86 1.572188612323443 -9.725758302392448 -10.425966772797262 0 0 0 0
535 3 0.86 1.572188612323443 -8.948524233565742 -10.332141982931011 0 0 0 0
63 1 0.6 4.629629629629631 -8.234422873335443 -10.327348154130473 0 0 0 0
158 1 0.6 4.629629629629631 -7.786439333465714 -10.55899336432335 0 0 0 0
173 1 0.6 4.629629629629631 -7.291198411030477 -10.479274428857218 0 0 0 0
586 3 0.86 1.572188612323443 -6.76356631995343 -10.051461790253992 0 0 0 0
255 2 0.74 2.467770911890708 -6.151890397375419 -10.416050248594138 0 0 1 0
100 1 0.6 4.629629629629631 -5.485732813723821 -10.18517943405749 0 0 0 0
947 4 1 1 -4.848667459464195 -10.334553835791198 0 0 0 0
143 1 0.6 4.629629629629631 -4.126766104393061 -10.541711189080441 0 0 0 0
71 1 0.6 4.629629629629631 -3.6040811280066176 -10.513680484848862 0 0 0 0
529 3 0.86 1.572188612323443 -2.369999781268298 -10.15031113013111 0 0 1 0
942 4 1 1 -1.4229094190399518 -10.519838668878291 0 0 0 0
793 4 1 1 -0.7630012471209788 -9.850492140544459 0 0 0 0
753 4 1 1 0.17603068650839937 -9.98805492791363 0 0 0 0
335 2 0.74 2.467770911890708 0.9219094979234654 -10.146713177448312 0 0 0 0
266 2 0.74 2.467770911890708 1.552316361300182 -9.871288545808037 0 0 0 0
639 3 0.86 1.572188612323443 1.828175488311592 -10.50912652209645 0 0 0 0
411 2 0.74 2.467770911890708 2.608816602098324 -10.633667742645404 0 0 1 0
928 4 1 1 3.3234375299002306 -10.103275378522403 0 0 1 0
610 3 0.86 1.572188612323443 4.157008861154807 -9.989764005592665 0 0 0 0
243 1 0.6 4.629629629629631 4.556946399754441 -10.671801197449074 0 0 0 0
972 4 1 1 5.0537478716151565 -10.093176571468204 0 0 1 0
878 4 1 1 6.008938671158047 -10.718115740371422 0 0 0 0
896 4 1 1 6.678307392873174 -10.005432136914894 0 0 0 0
524 3 0.86 1.572188612323443 6.890023916204436 -10.79132361524219 0 0 1 0
330 2 0.74 2.467770911890708 7.5047348917999965 -10.32738193940602 0 0 0 0
911 4 1 1 8.15183002001159 -10.529453879056783 0 0 0 0
357 2 0.74 2.467770911890708 8.836929609033076 -9.974841329440313 0 0 0 0
962 4 1 1 9.631462933485787 -10.318052488864772 0 -1 1 0
817 4 1 1 10.583807699458939 -10.095992881722081 0 0 0 0
133 1 0.6 4.629629629629631 11.34249884006446 -10.27086556211474 0 0 0 0
236 1 0.6 4.629629629629631 -10.783149629646504 -9.46478312793725 0 0 0 0
746 3 0.86 1.572188612323443 -10.202111609248599 -9.744267083195396 0 0 0 0
97 1 0.6 4.629629629629631 -9.685958662813725 -9.227890255461228 0 0 0 0
105 1 0.6 4.629629629629631 -9.29399621760419 -9.700109302937149 0 0 0 0
661 3 0.86 1.572188612323443 -8.509442635619115 -9.698724406083624 0 0 0 0
965 4 1 1 -7.610631816858687 -9.768260145233125 0 0 0 0
442 2 0.74 2.467770911890708 -8.152746764372326 -9.045240888924997 0 0 0 0
983 4 1 1 -6.753906215536595 -9.247502067670682 0 0 0 0
992 4 1 1 -5.9323968547713255 -9.620717148663793 0 0 0 0
958 4 1 1 -4.989079695883085 -9.423449273096008 0 0 0 0
482 2 0.74 2.467770911890708 -4.1736619209670165 -9.896050174375107 0 0 0 0
154 1 0.6 4.629629629629631 -4.345294658725082 -9.178821669000802 0 0 0 0
99 1 0.6 4.629629629629631 -3.823281804294834 -9.315884796764696 0 0 0 0
990 4 1 1 -3.2449658241423656 -9.883755935275957 0 0 0 0
886 4 1 1 -2.512315693874502 -9.293381285662793 0 0 0 0
637 3 0.86 1.572188612323443 -1.7195014684045837 -9.642046668919635 0 0 0 0
182 1 0.6 4.629629629629631 -1.1190064310747072 -9.19981618829141 0 0 0 0
445 2 0.74 2.467770911890708 -0.4464488743845276 -9.083094191054915 0 0 0 0
250 1 0.6 4.629629629629631 0.12578764498280748 -9.283234209903867 0 0 0 0
800 4 1 1 0.8886325869622009 -9.424125455581729 0 0 0 0
574 3 0.86 1.572188612323443 1.6775643838433858 -9.171167667840809 0 0 0 0
880 4 1 1 2.4114411217661473 -9.796598744452854 0 0 0 0
257 2 0.74 2.467770911890708 3.1608669292735883 -9.32315154840934 0 0 0 0
49 1 0.6 4.629629629629631 3.7598936786646053 -9.401297247324836 0 0 1 0
736 3 0.86 1.572188612323443 4.502169670652297 -9.330193588469996 0 0 0 0
448 2 0.74 2.467770911890708 5.809078189625792 -9.980514710640524 0 0 0 0
287 2 0.74 2.467770911890708 6.137156618494343 -9.407452956552701 0 0 0 0
17 1 0.6 4.629629629629631 7.4158201710098215 -9.61409894022645 0 0 0 0
936 4 1 1 8.128238395311476 -9.592982022968219 0 0 1 0
80 1 0.6 4.629629629629631 8.861226653072846 -9.324940655139388 0 0 0 0
487 2 0.74 2.467770911890708 9.475917687338805 -9.538711928640554 0 0 0 0
62 1 0.6 4.629629629629631 10.059106983661893 -9.047237593411 0 0 0 0
189 1 0.6 4.629629629629631 9.993966243910593 -9.646636558270126 0 0 0 0
274 2 0.74 2.467770911890708 10.695698861992474 -9.27727730554646 0 0 0 0
585 3 0.86 1.572188612323443 11.364434965118202 -9.605450556205042 0 0 0 0
501 3 0.86 1.572188612323443 -11.077999458065678 -8.89349051858481 0 1 0 0
320 2 0.74 2.467770911890708 -10.22137595301138 -8.960146314884835 0 1 0 0
702 3 0.86 1.572188612323443 -9.644275983973008 -8.488804970100757 0 0 0 0
773 4 1 1 -8.979322374935196 -8.988480483506448 0 0 0 0
673 3 0.86 1.572188612323443 -7.497026793126647 -8.890539720322778 0 0 0 0
222 1 0.6 4.629629629629631 -7.006220981205866 -8.445391854556409 0 0 0 0
466 2 0.74 2.467770911890708 -6.324092551574415 -8.605987613016604 0 0 0 0
797 4 1 1 -5.529224670602835 -8.73419830584751 0 0 0 0
451 2 0.74 2.467770911890708 -4.726741557955134 -8.645886471923406 0 0 1 0
407 2 0.74 2.467770911890708 -4.058179650165401 -8.727242722975165 0 0 0 0
617 3 0.86 1.572188612323443 -3.2920694079952195 -8.995241577452743 0 0 0 0
263 2 0.74 2.467770911890708 -2.324234004241772 -8.445377664187223 0 0 0 0
362 2 0.74 2.467770911890708 -2.9997428337663408 -8.313101821831697 0 0 0 0
735 3 0.86 1.572188612323443 -1.7296280145623673 -8.85902212789058 0 0 0 0
153 1 0.6 4.629629629629631 -1.1064640005589812 -8.642720544686622 0 0 0 0
73 1 0.6 4.629629629629631 -0.20278660256015435 -8.552112713419776 0 0 0 0
716 3 0.86 1.572188612323443 0.4309026484351559 -8.661811509564922 0 0 0 0
363 2 0.74 2.467770911890708 1.185970631800389 -8.66569673819346 0 0 0 0
871 4 1 1 2.4787264109700597 -8.858194181606125 0 0 0 0
32 1 0.6 4.629629629629631 3.2103870637488434 -8.681655134403172 0 0 1 0
378 2 0.74 2.467770911890708 3.9980836808385067 -8.847718965866259 0 0 0 0
517 3 0.86 1.572188612323443 4.662892331668667 -8.53571723257156 0 0 0 0
755 4 1 1 5.388573647823931 -9.205704235455258 0 0 0 0
696 3 0.86 1.572188612323443 6.072342997675653 -8.659437462362048 0 0 0 0
864 4 1 1 6.92451948933868 -9.053087559108059 0 0 0 0
262 2 0.74 2.467770911890708 7.480725868855844 -8.46316440202561 0 0 0 0
118 1 0.6 4.629629629629631 7.658857937201782 -9.026438406557745 0 0 1 0
908 4 1 1 8.40657197309084 -8.693023480578981 0 0 0 0
930 4 1 1 9.37960094684829 -8.780569336680017 0 0 0 0
457 2 0.74 2.467770911890708 10.070642761568289 -8.533562805191083 0 0 0 0
74 1 0.6 4.629629629629631 10.705981176202444 -8.611218394213997 0 0 0 0
172 1 0.6 4.629629629629631 11.10584229550116 -8.83025286396749 0 0 0 0
974 4 1 1 -10.566846287174867 -8.247608706850004 0 1 0 0
108 1 0.6 4.629629629629631 -9.918831846521325 -7.8794440373185655 0 0 0 0
352 2 0.74 2.467770911890708 -9.368565625965713 -7.745606562863635 0 0 0 0
235 1 0.6 4.629629629629631 -8.997762613137871 -8.258968144143855 0 0 0 0
848 4 1 1 -8.1434695150898 -8.274618370725065 0 0 0 0
374 2 0.74 2.467770911890708 -7.402240035189945 -7.980096947598938 0 0 0 0
759 4 1 1 -6.643251586874238 -7.794076926877667 0 0 0 0
102 1 0.6 4.629629629629631 -5.905642591485097 -8.02608701300643 0 0 0 0
689 3 0.86 1.572188612323443 -5.160215727975875 -7.899588964025984 0 0 0 0
861 4 1 1 -4.3002610564883135 -7.980996701752867 0 0 0 0
197 1 0.6 4.629629629629631 -3.583305367395533 -8.360207893447768 0 0 0 0
796 4 1 1 -2.470297341901583 -7.628338932850928 0 0 0 0
935 4 1 1 -1.622141309574756 -8.085487032381263 0 0 0 0
589 3 0.86 1.572188612323443 -0.7422305482391494 -8.13182051134648 0 0 0 0
674 3 0.86 1.572188612323443 0.09632496955805081 -7.969962324918327 0 0 0 0
1000 4 1 1 0.9631573955126935 -7.913844688565435 0 0 0 0
966 4 1 1 1.8432370082694831 -8.218101972742259 0 0 0 0
791 4 1 1 2.801728311087606 -8.05199822684389 0 0 0 0
337 2 0.74 2.467770911890708 3.6266527008510625 -8.292216862481395 0 0 0 0
52 1 0.6 4.629629629629631 4.215163314720893 -8.015485117533956 0 0 0 0
694 3 0.86 1.572188612323443 5.330489904717188 -8.341381083613047 0 0 0 0
397 2 0.74 2.467770911890708 4.772635039731865 -7.8212266153411125 0 0 0 0
854 4 1 1 6.010820595858876 -7.814309308219899 0 0 0 0
630 3 0.86 1.572188612323443 6.766768138369761 -8.225676817202295 0 0 0 0
109 1 0.6 4.629629629629631 7.420885692883987 -7.896824726232019 0 0 0 0
604 3 0.86 1.572188612323443 8.045707923508212 -7.976549805881586 0 0 0 0
859 4 1 1 8.89441401268259 -7.98213054316032 0 0 0 0
798 4 1 1 9.742920039166046 -7.737435187909918 0 0 0 0
20 1 0.6 4.629629629629631 10.477073643327364 -8.04440706754003 0 0 0 0
812 4 1 1 11.276610650389204 -8.110808127519467 0 0 0 0
195 1 0.6 4.629629629629631 -10.941075922420964 -7.52934186064782 0 0 0 0
665 3 0.86 1.572188612323443 -10.29804441183353 -7.432682572236969 0 0 0 0
619 3 0.86 1.572188612323443 -9.508511584334045 -7.031384789613042 0 0 0 0
945 4 1 1 -8.65050361034984 -7.522354865812484 0 0 0 0
405 2 0.74 2.467770911890708 -7.853360975032979 -7.447737123140719 0 0 0 0
28 1 0.6 4.629629629629631 -8.17205312458302 -6.884902476523783 0 0 0 0
132 1 0.6 4.629629629629631 -7.21359478074104 -7.385118379579255 0 0 0 0
811 4 1 1 -5.868561863653874 -7.274200529667221 0 0 0 0
192 1 0.6 4.629629629629631 -5.19502506892587 -7.12809957523653 0 0 0 0
303 2 0.74 2.467770911890708 -4.631225692840652 -7.303877196118669 0 0 0 0
675 3 0.86 1.572188612323443 -4.078157820105856 -6.882475566944001 0 0 0 0
960 4 1 1 -3.3985994575895457 -7.60499121256704 0 0 0 0
318 2 0.74 2.467770911890708 -3.1153693623544907 -6.832584979307576 0 0 0 0
762 4 1 1 -1.654190715998899 -7.136703286911241 0 0 0 0
66 1 0.6 4.629629629629631 -1.0675346130879397 -7.562753074703634 0 0 0 0
553 3 0.86 1.572188612323443 -0.40946543576436767 -7.3780765176661935 0 0 0 0
633 3 0.86 1.572188612323443 0.39315684113206295 -7.206473173337468 0 0 0 0
995 4 1 1 1.1943803964851085 -7.086032920041003 0 0 0 0
921 4 1 1 2.1441786594914074 -7.290860226086555 0 0 0 0
162 1 0.6 4.629629629629631 2.8799594856783344 -7.270610519965562 0 0 0 0
888 4 1 1 3.6147828233194392 -7.515493239709247 0 0 1 0
92 1 0.6 4.629629629629631 4.277543591373982 -7.379465610211687 0 0 0 0
11 1 0.6 4.629629629629631 3.981998368084014 -6.853031221739668 0 0 0 0
78 1 0.6 4.629629629629631 5.338014570334595 -7.535546840099317 0 0 0 0
835 4 1 1 4.934108087159709 -6.952024919951711 0 0 0 0
275 2 0.74 2.467770911890708 5.7582218921087485 -7.115144921885369 0 0 0 0
891 4 1 1 6.860598523968639 -7.379411743404884 0 0 0 0
440 2 0.74 2.467770911890708 7.7262620574145 -7.2542183656366 0 0 0 0
513 3 0.86 1.572188612323443 8.46220126687824 -7.303646009897129 0 0 0 0
371 2 0.74 2.467770911890708 9.153398231281669 -7.16222135718001 0 0 0 0
461 2 0.74 2.467770911890708 10.010916127827043 -6.960272033960159 0 0 0 0
284 2 0.74 2.467770911890708 10.599919847927657 -7.47941270057918 0 0 0 0
560 3 0.86 1.572188612323443 11.286237208892585 -7.217993430525547 0 0 0 0
433 2 0.74 2.467770911890708 -10.85583409920224 -6.886450944961886 0 0 0 0
355 2 0.74 2.467770911890708 -10.144079869207923 -6.745212102381476 0 0 0 0
968 4 1 1 -8.847086145471962 -6.593835935206594 0 0 0 0
421 2 0.74 2.467770911890708 -8.025654263197575 -6.324735465796746 0 0 0 0
392 2 0.74 2.467770911890708 -7.505490271668976 -6.8415207809687 0 0 0 0
868 4 1 1 -6.681173987574382 -6.813481168347599 0 0 0 0
159 1 0.6 4.629629629629631 -6.451654291248227 -6.083438620881635 0 0 0 0
282 2 0.74 2.467770911890708 -5.980190069046031 -6.448733850569973 0 0 0 0
174 1 0.6 4.629629629629631 -5.411459044134832 -6.653836519994435 0 0 0 0
431 2 0.74 2.467770911890708 -4.753898389193052 -6.572292384874123 0 0 0 0
254 2 0.74 2.467770911890708 -3.6534315846954266 -6.313315361794612 0 0 0 0
452 2 0.74 2.467770911890708 -2.401856658499364 -6.851074554933181 0 0 0 0
970 4 1 1 -2.858607362150904 -6.124921116983 0 0 0 0
31 1 0.6 4.629629629629631 -2.151178138589227 -6.403634142364958 0 0 0 0
794 4 1 1 -1.4605132683045046 -6.252330955535574 0 0 0 0
317 2 0.74 2.467770911890708 -0.8972136640430168 -6.795125955243386 0 0 0 0
328 2 0.74 2.467770911890708 -0.10355083876735804 -6.68193964535421 0 0 0 0
72 1 0.6 4.629629629629631 0.6951723291518679 -6.50890503327577 0 0 0 0
393 2 0.74 2.467770911890708 0.26689887138585 -6.0732543069563585 0 0 0 0
977 4 1 1 1.8320423043288585 -6.427496084777327 0 0 0 0
644 3 0.86 1.572188612323443 2.6428116881236416 -6.628276656459511 0 0 0 0
387 2 0.74 2.467770911890708 3.3158565828221285 -6.778555508272243 0 0 0 0
183 1 0.6 4.629629629629631 3.730026416715946 -6.414469949158712 0 0 0 0
505 3 0.86 1.572188612323443 4.38251799026178 -6.314427313889447 0 0 0 0
44 1 0.6 4.629629629629631 5.572099639764646 -6.475089070561001 0 0 0 0
922 4 1 1 6.369033142469574 -6.639965368522687 0 0 0 0
724 3 0.86 1.572188612323443 7.223367879647297 -6.565830361802287 0 0 0 0
732 3 0.86 1.572188612323443 8.073016249339572 -6.582212558880378 0 0 0 0
57 1 0.6 4.629629629629631 8.74253041746667 -6.6607707535456315 0 0 0 0
593 3 0.86 1.572188612323443 8.660465155687243 -6.017081222777294 0 0 0 0
741 3 0.86 1.572188612323443 9.407110621234336 -6.503312650384036 0 0 0 0
479 2 0.74 2.467770911890708 10.132601619260837 -6.251004077690791 0 0 0 0
481 2 0.74 2.467770911890708 10.629965885408671 -6.7193651142362105 0 0 0 0
787 4 1 1 11.359712276226764 -6.353624328024732 0 -1 0 0
246 1 0.6 4.629629629629631 10.652469900809075 -6.102717549102783 0 0 0 0
412 2 0.74 2.467770911890708 -11.31292447985821 -5.474868599193477 0 0 0 0
866 4 1 1 -10.545319213009387 -6.024157008023795 0 0 0 0
135 1 0.6 4.629629629629631 -10.002502397851202 -5.508169279645028 0 0 0 0
810 4 1 1 -9.599738918370551 -6.089555607337741 0 0 0 0
955 4 1 1 -8.751618644059473 -5.694583109366408 0 0 0 0
398 2 0.74 2.467770911890708 -7.966788665091055 -5.694496734423476 0 0 0 0
783 4 1 1 -7.217797615189929 -6.106061289118303 0 0 0 0
19 1 0.6 4.629629629629631 -6.6804791223614295 -5.597586015635633 0 0 0 0
240 1 0.6 4.629629629629631 -6.107025077123924 -5.661655062154152 0 0 0 0
780 4 1 1 -5.375682277917846 -5.951725714252711 0 0 0 0
226 1 0.6 4.629629629629631 -4.852326873625269 -5.385107342487979 0 0 0 0
816 4 1 1 -4.394837012443758 -5.9003692216969394 0 0 0 0
715 3 0.86 1.572188612323443 -3.5528001172920014 -5.619266553166981 0 0 0 0
763 4 1 1 -2.092815510935875 -5.568441183241298 0 0 0 0
683 3 0.86 1.572188612323443 -1.201233071592732 -5.457776435458244 0 0 0 0
918 4 1 1 -0.572923221003915 -5.994984822403857 0 0 0 0
837 4 1 1 0.1258582665624406 -5.256898875301499 0 0 0 0
827 4 1 1 1.0438417722780766 -5.884365963617162 0 0 0 0
268 2 0.74 2.467770911890708 1.7820150502397514 -5.5055358416211195 0 0 0 0
718 3 0.86 1.572188612323443 2.469734845390855 -5.781256892968414 0 0 0 0
536 3 0.86 1.572188612323443 3.2393444570357914 -6.011334116365846 0 0 0 0
249 1 0.6 4.629629629629631 3.913294496219221 -5.811918885377352 0 0 0 0
692 3 0.86 1.572188612323443 4.49143234130946 -5.4376642307354235 0 0 0 0
618 3 0.86 1.572188612323443 5.045998761275255 -6.025108107391932 0 0 0 0
476 2 0.74 2.467770911890708 5.898288633014497 -5.946206925098553 0 0 0 0
380 2 0.74 2.467770911890708 6.746297584804553 -5.970855152313509 0 0 0 0
83 1 0.6 4.629629629629631 7.055978864394648 -5.540492753752496 0 0 0 0
503 3 0.86 1.572188612323443 7.650034622539968 -5.849521904575759 0 0 0 0
137 1 0.6 4.629629629629631 8.19742357801823 -5.493282978866217 0 0 0 0
8 1 0.6 4.629629629629631 8.7183380749451 -5.367473963801875 0 0 0 0
971 4 1 1 9.460555313176519 -5.642489199173224 0 0 0 0
460 2 0.74 2.467770911890708 10.302013915392338 -5.532745076873677 0 0 0 0
117 1 0.6 4.629629629629631 10.952613915747582 -5.724383373804692 0 -1 0 0
867 4 1 1 -10.555403598545176 -5.081237511495561 0 1 0 0
26 1 0.6 4.629629629629631 -9.453367508422954 -5.316494495876439 0 0 0 0
511 3 0.86 1.572188612323443 -9.736402617654178 -4.709250973835692 0 0 0 0
265 2 0.74 2.467770911890708 -8.966650052289573 -4.919236440606022 0 0 0 0
38 1 0.6 4.629629629629631 -8.45361125786239 -4.580309550103685 0 0 0 0
151 1 0.6 4.629629629629631 -8.34346744019501 -5.1306914672550095 0 0 0 0
155 1 0.6 4.629629629629631 -7.919222427000939 -4.8711098138384274 0 0 0 0
870 4 1 1 -7.241035338884929 -5.160542474100223 0 0 0 0
493 2 0.74 2.467770911890708 -6.456639463078316 -5.022476834556267 0 0 0 0
855 4 1 1 -5.631803114649951 -5.0644801974674465 0 0 0 0
721 3 0.86 1.572188612323443 -4.793113341857027 -4.724478532764197 0 0 0 0
280 2 0.74 2.467770911890708 -4.1336302012849755 -5.130515347705777 0 0 0 0
129 1 0.6 4.629629629629631 -3.526766961132802 -4.959727175709167 0 0 0 0
523 3 0.86 1.572188612323443 -2.884230710593707 -5.179785024392133 0 0 0 0
288 2 0.74 2.467770911890708 -1.6154982499378292 -4.95026069251165 0 0 0 0
372 2 0.74 2.467770911890708 -0.9695890927986301 -4.685046611623806 0 0 0 0
168 1 0.6 4.629629629629631 -0.6044519816411889 -5.162982774958254 0 0 0 0
325 2 0.74 2.467770911890708 -0.2573744886386713 -4.517246847095588 0 0 0 0
81 1 0.6 4.629629629629631 0.26770473285982455 -4.480638788747512 0 0 0 0
409 2 0.74 2.467770911890708 0.8776111234097002 -5.095076127268298 0 0 0 0
491 2 0.74 2.467770911890708 1.408531092389575 -4.865485089262313 0 0 0 0
804 4 1 1 2.197912857885658 -4.879959233405716 0 0 0 0
302 2 0.74 2.467770911890708 2.9919017632680536 -5.236739906034172 0 0 0 0
648 3 0.86 1.572188612323443 3.6965704934015804 -5.1545657707002235 0 0 0 0
954 4 1 1 5.3376891281063354 -5.229287469853091 0 0 0 0
110 1 0.6 4.629629629629631 5.901851877106582 -4.70556049120726 0 0 0 0
761 4 1 1 6.299515930116927 -5.317656572509505 0 0 0 0
203 1 0.6 4.629629629629631 6.948552653039632 -4.900742175879655 0 0 0 0
669 3 0.86 1.572188612323443 7.636050437247869 -5.0965449771762 0 0 0 0
473 2 0.74 2.467770911890708 8.341436435757137 -4.850911477783501 0 0 0 0
662 3 0.86 1.572188612323443 9.05536121475678 -4.759489325508136 0 -1 0 0
822 4 1 1 9.925171337122533 -4.750661090743227 0 0 0 0
533 3 0.86 1.572188612323443 10.812157707072151 -5.075707375073564 0 -1 0 0
982 4 1 1 -11.309023595914708 -4.600226887579551 0 0 0 0
178 1 0.6 4.629629629629631 -10.374143021858096 -4.34931972249203 0 1 0 0
684 3 0.86 1.572188612323443 -9.864636571953664 -3.9550380201279784 0 0 0 0
39 1 0.6 4.629629629629631 -9.224882317495503 -4.261619104728788 0 0 0 0
386 2 0.74 2.467770911890708 -8.708537390730957 -3.9753078790876337 0 0 0 0
844 4 1 1 -7.9041539673907115 -4.142514899354028 0 0 0 0
885 4 1 1 -6.984665236484688 -4.222560210891891 0 0 0 0
577 3 0.86 1.572188612323443 -6.210541258914404 -4.396770758157019 0 0 0 0
774 4 1 1 -5.4566203953600505 -4.036870815169923 0 0 0 0
227 1 0.6 4.629629629629631 -4.683837377333077 -4.027392909209264 0 0 0 0
929 4 1 1 -4.009803425547462 -4.349464137184052 0 0 0 0
521 3 0.86 1.572188612323443 -3.1687663933501042 -4.378684173845862 0 0 0 0
853 4 1 1 -2.2208068088418784 -4.512458696132906 0 0 0 0
90 1 0.6 4.629629629629631 -1.5040145873270792 -4.359538203681271 0 0 0 0
562 3 0.86 1.572188612323443 -0.8254999726353756 -3.993710365210016 0 0 0 0
474 2 0.74 2.467770911890708 -0.056588878427811906 -3.8550836323884106 0 0 0 0
193 1 0.6 4.629629629629631 0.4874612035335133 -3.8572213784959066 0 0 0 0
739 3 0.86 1.572188612323443 0.9177930204799125 -4.312402750428843 0 0 0 0
656 3 0.86 1.572188612323443 1.6948821313581401 -4.159400228603556 0 0 0 0
652 3 0.86 1.572188612323443 2.484910324143879 -4.044720541993569 0 0 0 0
486 2 0.74 2.467770911890708 3.129678851243483 -4.6068480073740465 0 0 0 0
636 3 0.86 1.572188612323443 3.867144183588099 -4.409823759024454 0 0 0 0
818 4 1 1 4.675066387604792 -4.521822126466808 0 0 0 0
496 2 0.74 2.467770911890708 5.085044633690883 -3.8149276332813784 0 0 0 0
9 1 0.6 4.629629629629631 5.40454350612338 -4.510409266729776 0 0 0 0
775 4 1 1 5.872113371236955 -3.9490929772978403 0 0 0 0
218 1 0.6 4.629629629629631 6.40838751522824 -4.525414195844619 0 -1 0 0
568 3 0.86 1.572188612323443 6.668444930929626 -3.7817842893480647 0 0 0 0
136 1 0.6 4.629629629629631 6.938454126842123 -4.316996206093336 0 0 0 0
46 1 0.6 4.629629629629631 7.363763437870672 -4.482694441680544 0 0 0 0
323 2 0.74 2.467770911890708 7.964333453625548 -4.313844423334356 0 0 0 0
396 2 0.74 2.467770911890708 8.648919248007944 -4.178977575778998 0 0 0 0
426 2 0.74 2.467770911890708 9.423513907905138 -4.1557642778946615 0 0 0 0
200 1 0.6 4.629629629629631 9.983701010122994 -4.055299564264778 0 0 0 0
518 3 0.86 1.572188612323443 10.62541004256345 -4.3262648440520515 0 -1 0 0
834 4 1 1 -10.742809542658533 -3.8126026979381074 0 0 0 0
24 1 0.6 4.629629629629631 -9.306738077903029 -3.733061479452523 0 0 0 0
959 4 1 1 -9.757386941722714 -3.1788441475902065 0 0 0 0
213 1 0.6 4.629629629629631 -8.93258245499567 -3.389431167761744 0 0 0 0
592 3 0.86 1.572188612323443 -8.250984064011675 -3.365452560923341 0 0 0 0
609 3 0.86 1.572188612323443 -7.284077019705863 -3.4314000781905456 0 0 0 0
986 4 1 1 -6.373500528690995 -3.522773873295278 0 0 0 0
391 2 0.74 2.467770911890708 -5.6404238061722225 -3.261574408231981 0 0 0 0
777 4 1 1 -4.818323765107297 -3.2459719561713882 0 0 0 0
232 1 0.6 4.629629629629631 -4.207279587911404 -3.6189977625041916 0 0 0 0
564 3 0.86 1.572188612323443 -3.4912085820349947 -3.648642779252394 0 0 0 0
534 3 0.86 1.572188612323443 -2.672645952957529 -3.850461016462705 0 0 0 0
494 2 0.74 2.467770911890708 -2.350530618129202 -3.1719977418478074 0 0 0 0
941 4 1 1 -1.7737545509016037 -3.6926767422670697 0 0 0 0
88 1 0.6 4.629629629629631 -1.1503318977465362 -3.3908867505447553 0 0 0 0
422 2 0.74 2.467770911890708 -0.46992091312724504 -3.3026587541325814 0 0 0 0
273 2 0.74 2.467770911890708 0.2773837886115569 -3.281128632755687 0 0 0 0
988 4 1 1 1.1363463037432506 -3.5137628907152703 0 0 0 0
394 2 0.74 2.467770911890708 2.0203790629451674 -3.4233011533042763 0 0 0 0
104 1 0.6 4.629629629629631 2.6412878792018883 -3.3960813175564297 0 0 0 0
975 4 1 1 3.3278054240696626 -3.7583277923952965 0 0 0 0
572 3 0.86 1.572188612323443 4.248857023474271 -3.7639525101217144 0 0 0 0
413 2 0.74 2.467770911890708 4.710122770034468 -3.221234278108847 0 0 0 0
379 2 0.74 2.467770911890708 5.544826356024318 -3.1647134783931854 0 0 0 0
420 2 0.74 2.467770911890708 6.194112829066219 -3.2043166478683336 0 0 0 0
685 3 0.86 1.572188612323443 7.435678162046914 -3.8044782543780205 0 0 0 0
216 1 0.6 4.629629629629631 6.9700779175878385 -3.1420009874671777 0 0 0 0
498 2 0.74 2.467770911890708 8.163402292272368 -3.6516641268135013 0 0 0 0
29 1 0.6 4.629629629629631 8.846009383357126 -3.6008735223617974 0 0 0 0
364 2 0.74 2.467770911890708 8.539106225885794 -3.074697694701367 0 0 0 0
5 1 0.6 4.629629629629631 9.392496144046182 -3.562580557060528 0 0 0 0
98 1 0.6 4.629629629629631 9.14263727431223 -3.099890992103454 0 -1 0 0
465 2 0.74 2.467770911890708 9.849504404513075 -3.1981136591780572 0 0 0 0
103 1 0.6 4.629629629629631 10.31859733353784 -3.5965774235770143 0 -1 0 0
769 4 1 1 11.15184768987253 -3.703951854117424 0 -1 0 0
980 4 1 1 -11.22130133644865 -2.8802204236707123 0 0 0 0
50 1 0.6 4.629629629629631 -10.441101603188066 -3.1327441958014006 0 0 0 0
607 3 0.86 1.572188612323443 -10.49627095845863 -2.451056853296473 0 0 0 0
313 2 0.74 2.467770911890708 -9.097590292016964 -2.7848323351649924 0 0 0 0
305 2 0.74 2.467770911890708 -8.471748534683709 -2.5587424088437114 0 0 0 0
558 3 0.86 1.572188612323443 -7.695328766452753 -2.7760273584970747 0 0 0 0
931 4 1 1 -6.846206484563418 -2.6028330078360984 0 0 0 0
27 1 0.6 4.629629629629631 -6.0844659129217735 -2.8099740259558157 0 0 0 0
964 4 1 1 -5.39009082114114 -2.5246861351794436 0 0 0 0
554 3 0.86 1.572188612323443 -4.541754974720452 -2.3908831105988053 0 0 0 0
653 3 0.86 1.572188612323443 -4.006944712062524 -2.9866337907939027 0 0 0 0
882 4 1 1 -3.048079101390176 -2.9271431866271946 0 0 0 0
823 4 1 1 -2.352649698322823 -2.248128481544507 0 0 0 0
399 2 0.74 2.467770911890708 -1.7608997355096925 -2.8269812579297557 0 0 0 0
603 3 0.86 1.572188612323443 -1.0570003707505098 -2.7685897604818575 0 0 0 0
294 2 0.74 2.467770911890708 -0.5161662876330002 -2.2971279299863028 0 0 0 0
161 1 0.6 4.629629629629631 -0.13659764829087706 -2.831978805563889 0 0 0 0
167 1 0.6 4.629629629629631 0.19590955844600266 -2.3044476650640036 0 0 0 0
563 3 0.86 1.572188612323443 0.8045442038080548 -2.6793274176475794 0 0 0 0
224 1 0.6 4.629629629629631 1.3253042462866063 -2.2562755145327387 0 0 0 0
597 3 0.86 1.572188612323443 1.6468371967409414 -2.7702631401575406 0 0 0 0
281 2 0.74 2.467770911890708 2.387931686410626 -2.842339817854315 0 0 0 0
453 2 0.74 2.467770911890708 3.1645393214512296 -3.003412508085413 0 0 0 0
890 4 1 1 3.9636826532611966 -3.0136036804079254 0 0 0 0
506 3 0.86 1.572188612323443 4.622093825437341 -2.3900793457481306 0 0 0 0
70 1 0.6 4.629629629629631 5.234872316532114 -2.6053487958676396 0 0 0 0
646 3 0.86 1.572188612323443 5.956879008741035 -2.53345093304206 0 0 0 0
54 1 0.6 4.629629629629631 6.579800086233076 -2.7651724420510053 0 0 0 0
210 1 0.6 4.629629629629631 7.145807810109728 -2.4657921128612124 0 0 0 0
875 4 1 1 7.64776835030572 -2.9816145806036705 0 0 0 0
149 1 0.6 4.629629629629631 8.171875694353757 -2.5568726294402637 0 0 0 0
659 3 0.86 1.572188612323443 8.954790751414714 -2.385060229202203 0 0 0 0
179 1 0.6 4.629629629629631 9.566117167612697 -2.6651414032395504 0 0 0 0
298 2 0.74 2.467770911890708 10.175472615525242 -2.3614296130213113 0 0 0 0
894 4 1 1 10.624597091190532 -2.910809472164976 0 -1 0 0
522 3 0.86 1.572188612323443 -11.072305796398142 -1.962167182018586 0 0 0 0
671 3 0.86 1.572188612323443 -10.224770671709638 -1.655409806068512 0 0 0 0
678 3 0.86 1.572188612323443 -9.677488668586824 -2.256136016816253 0 0 0 0
142 1 0.6 4.629629629629631 -9.003668073421554 -2.165544822189098 0 0 0 0
785 4 1 1 -8.512865287657455 -1.6756460930328192 0 0 0 0
113 1 0.6 4.629629629629631 -7.922855276115383 -2.121888230923755 0 0 0 0
244 1 0.6 4.629629629629631 -7.3727788411304465 -2.086402806105678 0 0 0 0
79 1 0.6 4.629629629629631 -6.236515499293485 -2.1850453740438507 0 0 0 0
858 4 1 1 -6.7988179666916615 -1.601569212666643 0 0 0 0
333 2 0.74 2.467770911890708 -5.814134381399182 -1.7761803036568313 0 0 0 0
731 3 0.86 1.572188612323443 -5.05390054031425 -1.7627825197417248 0 0 0 0
635 3 0.86 1.572188612323443 -4.156893804075974 -1.711234127048856 0 0 0 0
677 3 0.86 1.572188612323443 -3.6928896013703394 -2.2997430764867044 0 0 0 0
221 1 0.6 4.629629629629631 -3.0580087343793547 -2.1897132633358947 0 0 0 0
540 3 0.86 1.572188612323443 -2.027299460526306 -1.3803902460232127 0 0 0 0
760 4 1 1 -1.4381681541172338 -2.024009720458862 0 0 0 0
45 1 0.6 4.629629629629631 -0.7472848362052407 -1.7472101954347092 0 0 0 0
541 3 0.86 1.572188612323443 -0.06687882683640822 -1.7029123421989052 0 0 0 0
566 3 0.86 1.572188612323443 0.728536095878523 -1.8464268429384543 0 0 0 0
134 1 0.6 4.629629629629631 1.3529674946396142 -1.6685084522250389 0 0 0 0
795 4 1 1 2.1120598533104946 -2.055430573888236 0 0 0 0
314 2 0.74 2.467770911890708 2.8853371779371653 -2.401009974943543 0 0 0 0
349 2 0.74 2.467770911890708 3.5637856497300255 -2.2373952699571085 0 0 0 0
55 1 0.6 4.629629629629631 3.170387342211651 -1.8037357790161739 0 0 0 0
7 1 0.6 4.629629629629631 4.088612546550063 -2.0453040148388375 0 0 0 0